* GENERATED BY CHARMM-GUI (HTTP://WWW.CHARMM-GUI.ORG) V3.7 ON AUG, 30. 2026. JOB
* INPUT GENERATION
*  DATE:     8/30/26     14:23:22      CREATED BY USER: charmm-gui
*
     36903  EXT
         1         1  ASN       N               0.8070197278        1.0518180074      -11.7627130842  PROA      1               0.0000000000
         2         1  ASN       HT1             0.0174607808        1.0420837733      -12.4474987620  PROA      1               0.0000000000
         3         1  ASN       HT2             1.6550221388        0.5940109583      -12.1366833364  PROA      1               0.0000000000
         4         1  ASN       HT3             1.0644910196        2.0680895259      -11.5846757822  PROA      1               0.0000000000
         5         1  ASN       CA              0.5207523326        0.6321154577      -10.3793486140  PROA      1               0.0000000000
         6         1  ASN       HA             -0.5265254286        0.7878320840      -10.2071208727  PROA      1               0.0000000000
         7         1  ASN       CB              0.9735565875       -0.8369071063      -10.0800019840  PROA      1               0.0000000000
         8         1  ASN       HB1             1.6598629128       -0.8761119339       -9.2059520219  PROA      1               0.0000000000
         9         1  ASN       HB2             1.5210470268       -1.2824579257      -10.9346624504  PROA      1               0.0000000000
        10         1  ASN       CG             -0.2207615081       -1.7255477936       -9.7456563869  PROA      1               0.0000000000
        11         1  ASN       OD1            -0.4489689475       -2.0757994130       -8.5914635864  PROA      1               0.0000000000
        12         1  ASN       ND2            -1.0400754458       -2.0942388831      -10.7500862848  PROA      1               0.0000000000
        13         1  ASN       HD21           -1.7691108798       -2.7440232094      -10.5305455433  PROA      1               0.0000000000
        14         1  ASN       HD22           -0.7808016236       -1.9324698896      -11.6951761453  PROA      1               0.0000000000
        15         1  ASN       C               1.2572558313        1.6991232568       -9.5431598227  PROA      1               0.0000000000
        16         1  ASN       OT1             1.5367097631        2.8097343874      -10.0732035243  PROA      1               0.0000000000
        17         1  ASN       OT2             1.5589826475        1.3703176189       -8.3774816909  PROA      1               0.0000000000
        18         2  ASN       N              -0.7123985916        0.8197803620       -7.3059180910  PROB      2               0.0000000000
        19         2  ASN       HT1            -1.1658849897        1.7644940135       -7.3128840629  PROB      2               0.0000000000
        20         2  ASN       HT2            -1.3043520052        0.0502767411       -7.6549990377  PROB      2               0.0000000000
        21         2  ASN       HT3             0.1769738733        0.9641845570       -7.8748902541  PROB      2               0.0000000000
        22         2  ASN       CA             -0.1626481119        0.6377347517       -5.9706340685  PROB      2               0.0000000000
        23         2  ASN       HA             -1.0346932893        0.5817584286       -5.3473172888  PROB      2               0.0000000000
        24         2  ASN       CB              0.6958859618       -0.6570561970       -5.7933455291  PROB      2               0.0000000000
        25         2  ASN       HB1             1.5165943692       -0.4791199256       -5.0644691984  PROB      2               0.0000000000
        26         2  ASN       HB2             1.1719174225       -0.9805345153       -6.7383461695  PROB      2               0.0000000000
        27         2  ASN       CG             -0.1726931861       -1.7761041706       -5.2127986771  PROB      2               0.0000000000
        28         2  ASN       OD1            -0.0405373841       -2.1500406929       -4.0481707101  PROB      2               0.0000000000
        29         2  ASN       ND2            -1.1660912669       -2.2630363313       -5.9839013719  PROB      2               0.0000000000
        30         2  ASN       HD21           -1.6926387152       -3.0094239506       -5.5820252079  PROB      2               0.0000000000
        31         2  ASN       HD22           -1.0163225335       -2.2517734350       -6.9766445400  PROB      2               0.0000000000
        32         2  ASN       C               0.5253075427        1.9777935479       -5.5968607937  PROB      2               0.0000000000
        33         2  ASN       OT1             0.0408918558        3.0436108114       -6.0561440394  PROB      2               0.0000000000
        34         2  ASN       OT2             1.3620838524        1.9378304094       -4.6656137747  PROB      2               0.0000000000
        35         3  ARG       N              -0.6906150543        1.5465738306       -3.1385911036  PROC      3               0.0000000000
        36         3  ARG       HT1            -1.3237814162        2.3443671804       -2.8972446067  PROC      3               0.0000000000
        37         3  ARG       HT2            -1.1201484180        0.8195360075       -3.7191324256  PROC      3               0.0000000000
        38         3  ARG       HT3             0.1334257970        1.9949990076       -3.6575196282  PROC      3               0.0000000000
        39         3  ARG       CA             -0.1169237779        1.0804420425       -1.9093010771  PROC      3               0.0000000000
        40         3  ARG       HA             -0.8803414532        0.4971612800       -1.4666948634  PROC      3               0.0000000000
        41         3  ARG       CB              1.1907612516        0.2437084231       -1.9552333071  PROC      3               0.0000000000
        42         3  ARG       HB1             1.9609602062        0.7701211525       -2.5607130476  PROC      3               0.0000000000
        43         3  ARG       HB2             0.9938081370       -0.7427894921       -2.4156230161  PROC      3               0.0000000000
        44         3  ARG       CG              1.7207889444        0.0348819913       -0.5206074511  PROC      3               0.0000000000
        45         3  ARG       HG1             0.8752263198       -0.3149794431        0.0956448068  PROC      3               0.0000000000
        46         3  ARG       HG2             2.0435045747        1.0347023889       -0.1382414258  PROC      3               0.0000000000
        47         3  ARG       CD              2.8579103791       -0.9563658169       -0.2994469372  PROC      3               0.0000000000
        48         3  ARG       HD1             3.7647314508       -0.6444459839       -0.8640042129  PROC      3               0.0000000000
        49         3  ARG       HD2             2.5501054713       -1.9661287772       -0.6262617927  PROC      3               0.0000000000
        50         3  ARG       NE              3.1602932216       -0.9185605060        1.1727394502  PROC      3               0.0000000000
        51         3  ARG       HE              3.3888224616       -0.0211834484        1.5499005481  PROC      3               0.0000000000
        52         3  ARG       CZ              2.7286441473       -1.7828695760        2.0848265883  PROC      3               0.0000000000
        53         3  ARG       NH1             2.1869500133       -2.9426493483        1.7793372623  PROC      3               0.0000000000
        54         3  ARG       HH11            2.1836391245       -3.2490294796        0.8373106319  PROC      3               0.0000000000
        55         3  ARG       HH12            1.8374231179       -3.5068380793        2.5161133730  PROC      3               0.0000000000
        56         3  ARG       NH2             2.7308100248       -1.4357929216        3.3516317671  PROC      3               0.0000000000
        57         3  ARG       HH21            2.5746103840       -0.4501274757        3.4792208887  PROC      3               0.0000000000
        58         3  ARG       HH22            2.1631234099       -1.9842889487        3.9649627404  PROC      3               0.0000000000
        59         3  ARG       C              -0.0191304316        2.4521053397       -1.2547705548  PROC      3               0.0000000000
        60         3  ARG       OT1             0.9984484156        3.1539098929       -1.4418498774  PROC      3               0.0000000000
        61         3  ARG       OT2            -1.1043621984        2.8474364332       -0.7289767531  PROC      3               0.0000000000
        62         4  PRO       N              -1.6184958532        0.7210463711        0.7804822522  PROD      4               0.0000000000
        63         4  PRO       HN1            -2.1948484388        1.5493598595        0.7925457634  PROD      4               0.0000000000
        64         4  PRO       HN2            -0.8649566448        0.9869188600        0.1614348260  PROD      4               0.0000000000
        65         4  PRO       CD             -2.3619059070       -0.5229914033        0.3803087739  PROD      4               0.0000000000
        66         4  PRO       HD1            -2.4860986722       -0.6066123590       -0.7160681145  PROD      4               0.0000000000
        67         4  PRO       HD2            -3.3610508221       -0.5269323276        0.8694185001  PROD      4               0.0000000000
        68         4  PRO       CA             -0.9830127871        0.4753940675        2.0783056608  PROD      4               0.0000000000
        69         4  PRO       HA             -1.6353844130        0.9832322359        2.7438955010  PROD      4               0.0000000000
        70         4  PRO       CB             -1.0214777279       -1.0488209551        2.2643532270  PROD      4               0.0000000000
        71         4  PRO       HB1            -1.7858984203       -1.2909480013        3.0344822685  PROD      4               0.0000000000
        72         4  PRO       HB2            -0.0498633104       -1.4815020361        2.5681001392  PROD      4               0.0000000000
        73         4  PRO       CG             -1.5050691265       -1.6433767965        0.9487656530  PROD      4               0.0000000000
        74         4  PRO       HG1            -0.6533980675       -1.8909437018        0.2782320476  PROD      4               0.0000000000
        75         4  PRO       HG2            -2.1058406505       -2.5584875001        1.1155776307  PROD      4               0.0000000000
        76         4  PRO       C               0.3707639893        1.1312857111        2.2153674563  PROD      4               0.0000000000
        77         4  PRO       OT1             0.6410813632        2.1607791219        1.5852349355  PROD      4               0.0000000000
        78         4  PRO       OT2             1.1044190504        0.6997516685        3.1397980873  PROD      4               0.0000000000
        79         5  ASN       N              -0.6555467668        1.8372342530        4.7637726720  PROE      5               0.0000000000
        80         5  ASN       HT1            -0.3376114101        2.8158690321        5.0364259628  PROE      5               0.0000000000
        81         5  ASN       HT2            -1.6212523573        1.8778381555        4.4212515085  PROE      5               0.0000000000
        82         5  ASN       HT3             0.0564147988        1.5482645105        4.0307989556  PROE      5               0.0000000000
        83         5  ASN       CA             -0.3766394447        1.1056332698        5.9974995675  PROE      5               0.0000000000
        84         5  ASN       HA             -1.2995440609        1.0212662978        6.5377473335  PROE      5               0.0000000000
        85         5  ASN       CB              0.4483259582       -0.2429629557        5.9172189474  PROE      5               0.0000000000
        86         5  ASN       HB1             0.7794139297       -0.5120493060        6.9445625324  PROE      5               0.0000000000
        87         5  ASN       HB2             1.3930181672       -0.0566493505        5.3702996501  PROE      5               0.0000000000
        88         5  ASN       CG             -0.1690053319       -1.5396738583        5.3882532547  PROE      5               0.0000000000
        89         5  ASN       OD1             0.5716006860       -2.3739412852        4.8577590737  PROE      5               0.0000000000
        90         5  ASN       ND2            -1.4966598897       -1.7570418662        5.4981401641  PROE      5               0.0000000000
        91         5  ASN       HD21           -1.7980858978       -2.6945900089        5.2922556023  PROE      5               0.0000000000
        92         5  ASN       HD22           -2.1154752913       -1.1082482684        5.9185351621  PROE      5               0.0000000000
        93         5  ASN       C               0.5083638251        2.1212081657        6.7479937610  PROE      5               0.0000000000
        94         5  ASN       OT1             0.6259468961        3.3150787915        6.3517591177  PROE      5               0.0000000000
        95         5  ASN       OT2             1.0500864693        1.6567915253        7.7723505669  PROE      5               0.0000000000
        96         6  PRO       N              -1.1428514509        0.9612834408        9.2061916306  PROF      6               0.0000000000
        97         6  PRO       HN1            -1.7720758083        1.7434634840        9.1949615376  PROF      6               0.0000000000
        98         6  PRO       HN2            -0.3130943850        1.2483856105        8.6793274331  PROF      6               0.0000000000
        99         6  PRO       CD             -1.6327879232       -0.4131700669        8.8749870104  PROF      6               0.0021981495
       100         6  PRO       HD1            -1.7544785375       -0.5624568741        7.7922653895  PROF      6               0.0000000000
       101         6  PRO       HD2            -2.6055604057       -0.5742124985        9.3866232639  PROF      6               0.0038000958
       102         6  PRO       CA             -0.5886305460        0.8352743700       10.5524980894  PROF      6               0.0349087116
       103         6  PRO       HA             -1.4246681067        0.6391887771       11.2059509501  PROF      6               0.0461612036
       104         6  PRO       CB              0.3262541121       -0.3807045183       10.3257810026  PROF      6               0.0349728055
       105         6  PRO       HB1             0.6545404950       -0.8242412321       11.2872517197  PROF      6               0.0576392161
       106         6  PRO       HB2             1.2308092543       -0.0664151601        9.7516687806  PROF      6               0.0211529811
       107         6  PRO       CG             -0.5553306390       -1.3338027875        9.4837252273  PROF      6               0.0149301278
       108         6  PRO       HG1             0.0518368066       -1.8494458565        8.7122573395  PROF      6               0.0000000000
       109         6  PRO       HG2            -1.0342567516       -2.0987065415       10.1326371660  PROF      6               0.0151472352
       110         6  PRO       C              -0.0075276573        2.1550492215       10.9816025219  PROF      6               0.0443360285
       111         6  PRO       OT1             0.0757807197        3.1265191926       10.1840032415  PROF      6               0.0305136881
       112         6  PRO       OT2             0.2680014057        2.2395091445       12.2079514472  PROF      6               0.0540932943
       113         7  POPC      N               3.4755014995        8.9681733912       21.2346708188  MEMB      1               0.0000000000
       114         7  POPC      C12             2.6461941554        7.9120659393       20.5121623452  MEMB      1               0.0000000000
       115         7  POPC      H12A            1.6945395783        8.3325127880       20.2477346618  MEMB      1               0.0000000000
       116         7  POPC      H12B            2.4561601463        7.0980822096       21.2138308059  MEMB      1               0.0000000000
       117         7  POPC      C13             3.8393404316       10.1418682765       20.3826226327  MEMB      1               0.0000000000
       118         7  POPC      H13A            4.3896624642       10.8959774455       20.9487266222  MEMB      1               0.0000000000
       119         7  POPC      H13B            4.5569673150        9.8502357807       19.6195741698  MEMB      1               0.0000000000
       120         7  POPC      H13C            2.9937778646       10.6393986607       19.9277149956  MEMB      1               0.0000000000
       121         7  POPC      C14             2.7194880559        9.5020055453       22.3970833094  MEMB      1               0.0000000000
       122         7  POPC      H14A            2.5420993239        8.7459392519       23.1492226091  MEMB      1               0.0000000000
       123         7  POPC      H14B            3.2781797392       10.3173509235       22.8544547121  MEMB      1               0.0000000000
       124         7  POPC      H14C            1.7576685755        9.8911894311       22.0734467570  MEMB      1               0.0000000000
       125         7  POPC      C15             4.7300167138        8.3001776414       21.7304823666  MEMB      1               0.0000000000
       126         7  POPC      H15A            5.2666356588        7.8537462829       20.8872105192  MEMB      1               0.0000000000
       127         7  POPC      H15B            4.4835624816        7.4928428942       22.4143261983  MEMB      1               0.0000000000
       128         7  POPC      H15C            5.4131965129        8.9815299825       22.2207526146  MEMB      1               0.0000000000
       129         7  POPC      C11             3.2630946613        7.1995288927       19.2909075735  MEMB      1               0.0000000000
       130         7  POPC      H11A            3.7203496014        7.9321159346       18.5995795359  MEMB      1               0.0000000000
       131         7  POPC      H11B            2.4617135808        6.6556810043       18.7355279406  MEMB      1               0.0000000000
       132         7  POPC      P               5.2214800561        5.5650740993       18.7571359342  MEMB      1               0.0000000000
       133         7  POPC      O13             4.4378040116        4.9593232360       17.6611911599  MEMB      1               0.0000000000
       134         7  POPC      O14             6.0205335857        4.6506216998       19.6226345059  MEMB      1               0.0000000000
       135         7  POPC      O12             4.2212613332        6.2706230354       19.7668664763  MEMB      1               0.0000000000
       136         7  POPC      O11             6.1095823083        6.7900419109       18.2271512436  MEMB      1               0.0000000000
       137         7  POPC      C1              7.2833511277        7.1069785554       18.9912924962  MEMB      1               0.0000000000
       138         7  POPC      HA              7.9248133451        6.2025123678       19.1278208777  MEMB      1               0.0000000000
       139         7  POPC      HB              6.9772525897        7.4846868866       19.9903233827  MEMB      1               0.0000000000
       140         7  POPC      C2              8.2300792888        8.1900790476       18.3654124817  MEMB      1               0.0000000000
       141         7  POPC      HS              8.8175963586        8.6488223553       19.1905750696  MEMB      1               0.0000000000
       142         7  POPC      O21             7.5611564401        9.2204724175       17.6513135089  MEMB      1               0.0000000000
       143         7  POPC      C21             6.6825673704        9.8915361305       18.3165233864  MEMB      1               0.0000000000
       144         7  POPC      O22             6.5744478512        9.9522721248       19.5353863920  MEMB      1               0.0000000000
       145         7  POPC      C22             5.8517436295       10.6920794226       17.3154395727  MEMB      1               0.0000000000
       146         7  POPC      H2R             6.5186881227       11.0291647308       16.4923034316  MEMB      1               0.0000000000
       147         7  POPC      H2S             5.4625752765       11.5853063113       17.8434375206  MEMB      1               0.0000000000
       148         7  POPC      C3              9.2310746957        7.5633560825       17.3735790945  MEMB      1               0.0000000000
       149         7  POPC      HX             10.0131815458        7.0436449440       17.9614800499  MEMB      1               0.0000000000
       150         7  POPC      HY              9.7250458303        8.3975021032       16.8207517594  MEMB      1               0.0000000000
       151         7  POPC      O31             8.6214990724        6.6025928720       16.4883824553  MEMB      1               0.0000000000
       152         7  POPC      C31             7.8857242799        7.1001374116       15.5028725904  MEMB      1               0.0000000000
       153         7  POPC      O32             7.8047049788        8.2704932589       15.1820536503  MEMB      1               0.0000000000
       154         7  POPC      C32             7.3212884914        5.9409266237       14.6795110489  MEMB      1               0.0000000000
       155         7  POPC      H2X             7.5967976199        4.9706349063       15.1386879643  MEMB      1               0.0000000000
       156         7  POPC      H2Y             7.8276742688        6.0148893524       13.6983297645  MEMB      1               0.0000000000
       157         7  POPC      C23             4.6950754460        9.8565943301       16.7221242076  MEMB      1               0.0000000000
       158         7  POPC      H3R             4.0044264201        9.5848142382       17.5433413351  MEMB      1               0.0000000000
       159         7  POPC      H3S             5.0807040385        8.9177277206       16.2611892461  MEMB      1               0.0000000000
       160         7  POPC      C24             3.8899195424       10.6492458947       15.6914907208  MEMB      1               0.0000000000
       161         7  POPC      H4R             4.4383658667       10.6776717769       14.7243136169  MEMB      1               0.0000000000
       162         7  POPC      H4S             3.8389813658       11.6921001521       16.0785719801  MEMB      1               0.0000000000
       163         7  POPC      C25             2.4491784413       10.1432665128       15.5086017925  MEMB      1               0.0000000000
       164         7  POPC      H5R             1.8991553624       10.8856806731       14.8895822979  MEMB      1               0.0000000000
       165         7  POPC      H5S             1.9704747740       10.1018970347       16.5113557366  MEMB      1               0.0000000000
       166         7  POPC      C26             2.3334733702        8.7689447269       14.8320455462  MEMB      1               0.0000000000
       167         7  POPC      H6R             1.2667310822        8.4537050129       14.8597304132  MEMB      1               0.0000000000
       168         7  POPC      H6S             2.9246313271        8.0057295551       15.3863886897  MEMB      1               0.0000000000
       169         7  POPC      C27             2.7828523016        8.8082422282       13.3654332585  MEMB      1               0.0000000000
       170         7  POPC      H7R             3.8930718367        8.7237644742       13.3416459457  MEMB      1               0.0000000000
       171         7  POPC      H7S             2.4923365285        9.7983323553       12.9429093317  MEMB      1               0.0000000000
       172         7  POPC      C28             2.1560167752        7.7112389727       12.4835812634  MEMB      1               0.0000000000
       173         7  POPC      H8R             1.0639369896        7.7115844133       12.6976453970  MEMB      1               0.0000000000
       174         7  POPC      H8S             2.5287417156        6.7282581065       12.8512611189  MEMB      1               0.0000000000
       175         7  POPC      C29             2.3137363167        7.7659299900       10.9771332268  MEMB      1               0.0000000000
       176         7  POPC      H91             1.6850555096        7.0091453755       10.4738204742  MEMB      1               0.0000000000
       177         7  POPC      C210            3.0869940112        8.5316991016       10.1753836736  MEMB      1               0.0000000000
       178         7  POPC      H101            3.0031804319        8.3549467542        9.0925461250  MEMB      1               0.0000000000
       179         7  POPC      C211            4.0838444641        9.6184752614       10.5075474037  MEMB      1               0.0000000000
       180         7  POPC      H11R            4.2155628414        9.7583219487       11.5951614485  MEMB      1               0.0000000000
       181         7  POPC      H11S            3.7295364103       10.5961444092       10.1170755513  MEMB      1               0.0000000000
       182         7  POPC      C212            5.4958550827        9.3235902098        9.9642777371  MEMB      1               0.0000000000
       183         7  POPC      H12R            5.8495002474        8.3581542347       10.3855466024  MEMB      1               0.0000000000
       184         7  POPC      H12S            6.1869427035       10.1105332135       10.3449514375  MEMB      1               0.0000000000
       185         7  POPC      C213            5.6051975343        9.2852573894        8.4341984267  MEMB      1               0.0000000000
       186         7  POPC      H13R            4.9489040032        8.4892739944        8.0183682795  MEMB      1               0.0000000000
       187         7  POPC      H13S            6.6531853162        9.0118922543        8.1774986316  MEMB      1               0.0000000000
       188         7  POPC      C214            5.2521641204       10.6316995195        7.7889928633  MEMB      1               0.0000000000
       189         7  POPC      H14R            5.8737627549       11.4313457035        8.2551715917  MEMB      1               0.0000000000
       190         7  POPC      H14S            4.1852132756       10.8740368481        7.9907709569  MEMB      1               0.0000000000
       191         7  POPC      C215            5.4807205976       10.6554464951        6.2748017494  MEMB      1               0.0000000000
       192         7  POPC      H15R            5.1851007874       11.6591368269        5.8925971973  MEMB      1               0.0000000000
       193         7  POPC      H15S            4.8234514334        9.8987621061        5.7896725795  MEMB      1               0.0000000000
       194         7  POPC      C216            6.9396841035       10.3824000850        5.8900750161  MEMB      1               0.0000000000
       195         7  POPC      H16R            7.1542628865        9.2973478787        6.0199319489  MEMB      1               0.0000000000
       196         7  POPC      H16S            7.6154125150       10.9480452482        6.5711442457  MEMB      1               0.0000000000
       197         7  POPC      C217            7.2638712406       10.7781743107        4.4478478242  MEMB      1               0.0000000000
       198         7  POPC      H17R            8.3210049384       10.5024552064        4.2466537210  MEMB      1               0.0000000000
       199         7  POPC      H17S            7.1950609550       11.8857032823        4.3580277948  MEMB      1               0.0000000000
       200         7  POPC      C218            6.3548449427       10.1244195556        3.4046646503  MEMB      1               0.0000000000
       201         7  POPC      H18R            6.6953788918       10.3659886144        2.3758806018  MEMB      1               0.0000000000
       202         7  POPC      H18S            5.3087827549       10.4818420766        3.5122436588  MEMB      1               0.0000000000
       203         7  POPC      H18T            6.3650524613        9.0192654521        3.5217372372  MEMB      1               0.0000000000
       204         7  POPC      C33             5.7887445072        6.0229416232       14.5002221413  MEMB      1               0.0000000000
       205         7  POPC      H3X             5.4764113622        7.0836201317       14.3590719529  MEMB      1               0.0000000000
       206         7  POPC      H3Y             5.2899918997        5.6454769936       15.4221541256  MEMB      1               0.0000000000
       207         7  POPC      C34             5.2773779373        5.2284116663       13.2909809483  MEMB      1               0.0000000000
       208         7  POPC      H4X             4.1719399009        5.3475492410       13.2314826331  MEMB      1               0.0000000000
       209         7  POPC      H4Y             5.4828581670        4.1438537722       13.4367877951  MEMB      1               0.0000000000
       210         7  POPC      C35             5.9020198746        5.7031928058       11.9717917818  MEMB      1               0.0000000000
       211         7  POPC      H5X             6.9409964385        5.3163105803       11.9046055720  MEMB      1               0.0000000000
       212         7  POPC      H5Y             5.9552479098        6.8150107219       11.9726470606  MEMB      1               0.0000000000
       213         7  POPC      C36             5.1310977278        5.2392492121       10.7380995653  MEMB      1               0.0000000000
       214         7  POPC      H6X             4.1600357653        5.7759106668       10.6867898387  MEMB      1               0.0000000000
       215         7  POPC      H6Y             4.8838432895        4.1580470485       10.8325971833  MEMB      1               0.0000000000
       216         7  POPC      C37             5.9155013561        5.4694287034        9.4414395668  MEMB      1               0.0000000000
       217         7  POPC      H7X             6.8216878067        4.8341786308        9.4275942291  MEMB      1               0.0000000000
       218         7  POPC      H7Y             6.2663953563        6.5214726291        9.3894855266  MEMB      1               0.0000000000
       219         7  POPC      C38             5.0686602184        5.1625619151        8.2121350187  MEMB      1               0.0000000000
       220         7  POPC      H8X             4.2707838745        5.9391706275        8.1490985178  MEMB      1               0.0000000000
       221         7  POPC      H8Y             4.5452467473        4.1850916245        8.3291963024  MEMB      1               0.0000000000
       222         7  POPC      C39             5.8716655426        5.1439463763        6.9085070146  MEMB      1               0.0000000000
       223         7  POPC      H9X             6.1781013854        4.0965215312        6.6856302625  MEMB      1               0.0000000000
       224         7  POPC      H9Y             6.7903890937        5.7649765319        7.0017937216  MEMB      1               0.0000000000
       225         7  POPC      C310            5.0061241429        5.6966479464        5.7813667729  MEMB      1               0.0000000000
       226         7  POPC      H10X            4.9014625237        6.7980744032        5.9149320831  MEMB      1               0.0000000000
       227         7  POPC      H10Y            3.9855477053        5.2531750754        5.8822301985  MEMB      1               0.0000000000
       228         7  POPC      C311            5.5022426721        5.3985157082        4.3653766270  MEMB      1               0.0000000000
       229         7  POPC      H11X            5.4970051021        4.2985668603        4.1984925222  MEMB      1               0.0000000000
       230         7  POPC      H11Y            6.5356538556        5.7771278815        4.2137415722  MEMB      1               0.0000000000
       231         7  POPC      C312            4.5418701409        6.0666501266        3.3844501216  MEMB      1               0.0000000000
       232         7  POPC      H12X            4.6298968210        7.1687823977        3.5109408402  MEMB      1               0.0000000000
       233         7  POPC      H12Y            3.5042408052        5.7715742767        3.6743453078  MEMB      1               0.0000000000
       234         7  POPC      C313            4.7256500813        5.6907980769        1.9144560889  MEMB      1               0.0000000000
       235         7  POPC      H13X            4.7398855421        4.5810889354        1.8124182026  MEMB      1               0.0000000000
       236         7  POPC      H13Y            5.6926259889        6.0841889028        1.5359132936  MEMB      1               0.0000000000
       237         7  POPC      C314            3.5515159526        6.2237099798        1.0783508657  MEMB      1               0.0000000000
       238         7  POPC      H14X            2.6341262371        5.6900562260        1.4211348022  MEMB      1               0.0000000000
       239         7  POPC      H14Y            3.6897512265        5.9458476308        0.0120708051  MEMB      1               0.0000000000
       240         7  POPC      C315            3.3171671053        7.7410468584        1.2088730689  MEMB      1               0.0000000000
       241         7  POPC      H15X            3.0255084296        7.9785132544        2.2560699244  MEMB      1               0.0000000000
       242         7  POPC      H15Y            2.4459892877        8.0208723280        0.5774090036  MEMB      1               0.0000000000
       243         7  POPC      C316            4.5179558591        8.6045056625        0.8110757162  MEMB      1               0.0000000000
       244         7  POPC      H16X            4.7900888631        8.4330013864       -0.2508776407  MEMB      1               0.0000000000
       245         7  POPC      H16Y            5.4024062411        8.3534044730        1.4324119177  MEMB      1               0.0000000000
       246         7  POPC      H16Z            4.2876960639        9.6825145300        0.9507863907  MEMB      1               0.0000000000
       247         8  POPS      N              -3.5278308018       -5.8217980424       19.5568426102  MEMB      2               0.0000000000
       248         8  POPS      HN1            -4.1712320365       -6.4845112500       19.0553672344  MEMB      2               0.0000000000
       249         8  POPS      HN2            -2.7096112811       -5.5601061958       18.9895457000  MEMB      2               0.0000000000
       250         8  POPS      HN3            -3.2605456448       -6.2084919440       20.4825547475  MEMB      2               0.0000000000
       251         8  POPS      C12            -4.3748696416       -4.6167862263       19.7578939693  MEMB      2               0.0000000000
       252         8  POPS      H12A           -4.3690661159       -4.0585739457       18.8344911452  MEMB      2               0.0000000000
       253         8  POPS      C13            -3.8660703616       -3.6445530249       20.8258488673  MEMB      2               0.0000000000
       254         8  POPS      O13A           -2.6944524127       -3.7998933439       21.2752941141  MEMB      2               0.0000000000
       255         8  POPS      O13B           -4.6408482152       -2.7152849896       21.1637573931  MEMB      2               0.0000000000
       256         8  POPS      C11            -5.8189700664       -5.1075582877       20.0269068899  MEMB      2               0.0000000000
       257         8  POPS      H11A           -6.5263336913       -4.2498570268       19.9223893787  MEMB      2               0.0000000000
       258         8  POPS      H11B           -5.8774502049       -5.4607506440       21.0789845844  MEMB      2               0.0000000000
       259         8  POPS      P              -6.3369072757       -6.0223059791       17.6147194254  MEMB      2               0.0000000000
       260         8  POPS      O13            -6.0315691235       -4.6334404632       17.2251039353  MEMB      2               0.0000000000
       261         8  POPS      O14            -7.6106635925       -6.6485273043       17.2442541710  MEMB      2               0.0000000000
       262         8  POPS      O12            -6.1822918111       -6.1944667421       19.1720277871  MEMB      2               0.0000000000
       263         8  POPS      O11            -5.1230456994       -6.9479862030       17.1735562036  MEMB      2               0.0000000000
       264         8  POPS      C1             -3.9421971363       -6.4638329716       16.5262453338  MEMB      2               0.0000000000
       265         8  POPS      HA             -3.0697827584       -6.9513318526       17.0099885619  MEMB      2               0.0000000000
       266         8  POPS      HB             -3.8138517673       -5.3602270702       16.6366028929  MEMB      2               0.0000000000
       267         8  POPS      C2             -3.8287840077       -6.7909301882       15.0001402736  MEMB      2               0.0000000000
       268         8  POPS      HS             -2.8104729843       -6.4797740776       14.6735644194  MEMB      2               0.0000000000
       269         8  POPS      O21            -4.8304618508       -6.0982696083       14.2439017756  MEMB      2               0.0000000000
       270         8  POPS      C21            -4.5084133346       -4.8443513964       13.9543671615  MEMB      2               0.0000000000
       271         8  POPS      O22            -3.4761815231       -4.2908159937       14.3032807722  MEMB      2               0.0000000000
       272         8  POPS      C22            -5.5449930954       -4.2363777024       13.0163522863  MEMB      2               0.0000000000
       273         8  POPS      H2R            -5.8987369254       -3.2890126633       13.4686752825  MEMB      2               0.0000000000
       274         8  POPS      H2S            -6.4025912402       -4.9352099742       12.9438139571  MEMB      2               0.0000000000
       275         8  POPS      C3             -3.9186978708       -8.3160684788       14.6695859140  MEMB      2               0.0000000000
       276         8  POPS      HX             -3.1510478765       -8.8255169167       15.2865071855  MEMB      2               0.0000000000
       277         8  POPS      HY             -3.6338843006       -8.4807338417       13.6047904322  MEMB      2               0.0000000000
       278         8  POPS      O31            -5.1972501117       -8.8926567683       14.9807803057  MEMB      2               0.0000000000
       279         8  POPS      C31            -6.1249354773       -8.6629475718       14.0480410171  MEMB      2               0.0000000000
       280         8  POPS      O32            -5.8957789349       -8.3812904208       12.8847024480  MEMB      2               0.0000000000
       281         8  POPS      C32            -7.5048398109       -8.8861509999       14.6577801642  MEMB      2               0.0000000000
       282         8  POPS      H2X            -7.5009705532       -8.4947383573       15.6940500308  MEMB      2               0.0000000000
       283         8  POPS      H2Y            -7.6513609546       -9.9764895097       14.7097311353  MEMB      2               0.0000000000
       284         8  POPS      C23            -4.9725695080       -3.9783744547       11.6016634573  MEMB      2               0.0000000000
       285         8  POPS      H3R            -4.6211264253       -4.9459890779       11.1717738743  MEMB      2               0.0000000000
       286         8  POPS      H3S            -4.1008251844       -3.2889628580       11.6503174655  MEMB      2               0.0000000000
       287         8  POPS      C24            -6.0437729440       -3.4031698560       10.6686806217  MEMB      2               0.0000000000
       288         8  POPS      H4R            -6.3121341387       -2.3688880453       10.9758332152  MEMB      2               0.0000000000
       289         8  POPS      H4S            -6.9571601432       -4.0312253927       10.7816941205  MEMB      2               0.0000000000
       290         8  POPS      C25            -5.6621455911       -3.4437142801        9.1847515779  MEMB      2               0.0000000000
       291         8  POPS      H5R            -6.5794048186       -3.2504859014        8.5928862335  MEMB      2               0.0000000000
       292         8  POPS      H5S            -5.3078383482       -4.4649243183        8.9222719837  MEMB      2               0.0000000000
       293         8  POPS      C26            -4.6406413132       -2.3845735398        8.7652756854  MEMB      2               0.0000000000
       294         8  POPS      H6R            -3.6670227707       -2.6233218566        9.2413617523  MEMB      2               0.0000000000
       295         8  POPS      H6S            -4.9850046441       -1.3974121238        9.1529418543  MEMB      2               0.0000000000
       296         8  POPS      C27            -4.5041286730       -2.2773491525        7.2339347044  MEMB      2               0.0000000000
       297         8  POPS      H7R            -3.7655921833       -1.4930557391        6.9856673122  MEMB      2               0.0000000000
       298         8  POPS      H7S            -5.4887484827       -1.9337619568        6.8330943995  MEMB      2               0.0000000000
       299         8  POPS      C28            -4.1482849743       -3.5948899183        6.5029507062  MEMB      2               0.0000000000
       300         8  POPS      H8R            -4.0524840569       -3.3686792096        5.4194093985  MEMB      2               0.0000000000
       301         8  POPS      H8S            -5.0226320050       -4.2758604710        6.6028526690  MEMB      2               0.0000000000
       302         8  POPS      C29            -2.9261286076       -4.2910600383        7.0494804555  MEMB      2               0.0000000000
       303         8  POPS      H91            -2.8832343995       -4.2882363732        8.1487504187  MEMB      2               0.0000000000
       304         8  POPS      C210           -1.9373341002       -4.9522081398        6.4152488511  MEMB      2               0.0000000000
       305         8  POPS      H101           -1.1665328391       -5.4005346185        7.0626467627  MEMB      2               0.0000000000
       306         8  POPS      C211           -1.6737679655       -5.2495698197        4.9551206689  MEMB      2               0.0000000000
       307         8  POPS      H11R           -1.4396880095       -6.3389926192        4.9027462899  MEMB      2               0.0000000000
       308         8  POPS      H11S           -0.7374901851       -4.7322872530        4.6439166720  MEMB      2               0.0000000000
       309         8  POPS      C212           -2.7161487035       -5.0142824728        3.8343077131  MEMB      2               0.0000000000
       310         8  POPS      H12R           -2.6600268138       -3.9555750771        3.5025859594  MEMB      2               0.0000000000
       311         8  POPS      H12S           -3.7412767774       -5.2093519731        4.2139257304  MEMB      2               0.0000000000
       312         8  POPS      C213           -2.4674190923       -5.9640250522        2.6433636595  MEMB      2               0.0000000000
       313         8  POPS      H13R           -2.9434606140       -6.9452404323        2.8668353425  MEMB      2               0.0000000000
       314         8  POPS      H13S           -1.3715590472       -6.1354468508        2.5725330903  MEMB      2               0.0000000000
       315         8  POPS      C214           -2.9693210849       -5.4715086111        1.2740265245  MEMB      2               0.0000000000
       316         8  POPS      H14R           -2.4221516942       -4.5555011557        0.9896046826  MEMB      2               0.0000000000
       317         8  POPS      H14S           -4.0472989100       -5.2155218188        1.3448735162  MEMB      2               0.0000000000
       318         8  POPS      C215           -2.7965059125       -6.5077032864        0.1501396151  MEMB      2               0.0000000000
       319         8  POPS      H15R           -3.3345105470       -6.1694623008       -0.7627059321  MEMB      2               0.0000000000
       320         8  POPS      H15S           -3.2879282503       -7.4484447901        0.4876419730  MEMB      2               0.0000000000
       321         8  POPS      C216           -1.3372017452       -6.8188586712       -0.2194344402  MEMB      2               0.0000000000
       322         8  POPS      H16R           -1.2945742385       -7.8545055953       -0.6235162197  MEMB      2               0.0000000000
       323         8  POPS      H16S           -0.7036981438       -6.7970884027        0.6913199191  MEMB      2               0.0000000000
       324         8  POPS      C217           -0.7349859029       -5.8963242154       -1.2885934856  MEMB      2               0.0000000000
       325         8  POPS      H17R            0.3722043329       -5.9007964994       -1.1562002967  MEMB      2               0.0000000000
       326         8  POPS      H17S           -1.0947864449       -4.8557218249       -1.1396814947  MEMB      2               0.0000000000
       327         8  POPS      C218           -1.0346281503       -6.3546558699       -2.7201119114  MEMB      2               0.0000000000
       328         8  POPS      H18R           -0.5676789155       -7.3468116775       -2.9046769654  MEMB      2               0.0000000000
       329         8  POPS      H18S           -0.6284597307       -5.6365772212       -3.4628989600  MEMB      2               0.0000000000
       330         8  POPS      H18T           -2.1291341866       -6.4463777808       -2.8827830155  MEMB      2               0.0000000000
       331         8  POPS      C33            -8.6292614405       -8.2177419540       13.8391205928  MEMB      2               0.0000000000
       332         8  POPS      H3X            -9.5918789793       -8.7318916516       14.0625780742  MEMB      2               0.0000000000
       333         8  POPS      H3Y            -8.4506970260       -8.3252222375       12.7450960513  MEMB      2               0.0000000000
       334         8  POPS      C34            -8.7819810611       -6.7378586284       14.2159485608  MEMB      2               0.0000000000
       335         8  POPS      H4X            -7.7997555060       -6.2183572172       14.1642017923  MEMB      2               0.0000000000
       336         8  POPS      H4Y            -9.1089530101       -6.6927151856       15.2812250854  MEMB      2               0.0000000000
       337         8  POPS      C35            -9.8159386087       -6.0024965093       13.3602572440  MEMB      2               0.0000000000
       338         8  POPS      H5X           -10.2427902140       -5.1612888938       13.9542766701  MEMB      2               0.0000000000
       339         8  POPS      H5Y           -10.6373302086       -6.7156331994       13.1358162713  MEMB      2               0.0000000000
       340         8  POPS      C36            -9.2503955369       -5.4263008017       12.0520501392  MEMB      2               0.0000000000
       341         8  POPS      H6X            -8.7661112595       -6.2405296914       11.4689282256  MEMB      2               0.0000000000
       342         8  POPS      H6Y            -8.4681293592       -4.6778100042       12.3041714992  MEMB      2               0.0000000000
       343         8  POPS      C37           -10.3396789601       -4.7447372369       11.2084000597  MEMB      2               0.0000000000
       344         8  POPS      H7X           -10.8684648623       -4.0040796733       11.8486111959  MEMB      2               0.0000000000
       345         8  POPS      H7Y           -11.0720688111       -5.5183174126       10.8828459971  MEMB      2               0.0000000000
       346         8  POPS      C38            -9.8428181968       -4.0201393173        9.9544943117  MEMB      2               0.0000000000
       347         8  POPS      H8X            -9.0910131315       -3.2501311878       10.2333009789  MEMB      2               0.0000000000
       348         8  POPS      H8Y           -10.7079510794       -3.4923059775        9.4897625837  MEMB      2               0.0000000000
       349         8  POPS      C39            -9.2479689185       -4.9789027772        8.9226681254  MEMB      2               0.0000000000
       350         8  POPS      H9X            -9.9653024298       -5.8088520848        8.7273256557  MEMB      2               0.0000000000
       351         8  POPS      H9Y            -8.3148377457       -5.4268538493        9.3346526462  MEMB      2               0.0000000000
       352         8  POPS      C310           -8.9352719434       -4.2712518352        7.6053403512  MEMB      2               0.0000000000
       353         8  POPS      H10X           -8.3996038319       -3.3203934635        7.8010908398  MEMB      2               0.0000000000
       354         8  POPS      H10Y           -9.8752599947       -3.9781458133        7.1053861752  MEMB      2               0.0000000000
       355         8  POPS      C311           -8.1111550843       -5.1509986669        6.6670095163  MEMB      2               0.0000000000
       356         8  POPS      H11X           -8.6712130293       -6.0879248405        6.4491984861  MEMB      2               0.0000000000
       357         8  POPS      H11Y           -7.1606372586       -5.4316943610        7.1758652610  MEMB      2               0.0000000000
       358         8  POPS      C312           -7.7823850799       -4.4335273910        5.3591315955  MEMB      2               0.0000000000
       359         8  POPS      H12X           -7.2699427798       -3.4748780293        5.6019744241  MEMB      2               0.0000000000
       360         8  POPS      H12Y           -8.7249464137       -4.1844241088        4.8236131938  MEMB      2               0.0000000000
       361         8  POPS      C313           -6.8679953588       -5.2668350362        4.4589856309  MEMB      2               0.0000000000
       362         8  POPS      H13X           -7.3839992953       -6.2018552994        4.1481836573  MEMB      2               0.0000000000
       363         8  POPS      H13Y           -5.9668016647       -5.5622046585        5.0426059121  MEMB      2               0.0000000000
       364         8  POPS      C314           -6.4144733143       -4.4856140592        3.2247265925  MEMB      2               0.0000000000
       365         8  POPS      H14X           -5.5463761445       -5.0140711096        2.7768647511  MEMB      2               0.0000000000
       366         8  POPS      H14Y           -6.0673638660       -3.4731462038        3.5290435274  MEMB      2               0.0000000000
       367         8  POPS      C315           -7.5077553949       -4.3673247977        2.1621947649  MEMB      2               0.0000000000
       368         8  POPS      H15X           -8.4319025993       -3.9394392017        2.6119807908  MEMB      2               0.0000000000
       369         8  POPS      H15Y           -7.7591997674       -5.3889079066        1.7950762399  MEMB      2               0.0000000000
       370         8  POPS      C316           -7.0823794339       -3.4928754485        0.9869491874  MEMB      2               0.0000000000
       371         8  POPS      H16X           -7.8211794456       -3.5462799056        0.1597010667  MEMB      2               0.0000000000
       372         8  POPS      H16Y           -6.0955653770       -3.8222372244        0.5990727611  MEMB      2               0.0000000000
       373         8  POPS      H16Z           -6.9967988380       -2.4373425245        1.3110769999  MEMB      2               0.0000000000
       374         9  POPS      N              -6.2614298750        2.1925095312       18.1549999834  MEMB      3               0.0000000000
       375         9  POPS      HN1            -5.9786840021        3.1973868856       18.0326006499  MEMB      3               0.0000000000
       376         9  POPS      HN2            -5.4308305875        1.6061907531       18.4147689270  MEMB      3               0.0000000000
       377         9  POPS      HN3            -6.7655108238        1.8239685294       17.3125900039  MEMB      3               0.0000000000
       378         9  POPS      C12            -7.2028801361        2.0561009897       19.3079627238  MEMB      3               0.0000000000
       379         9  POPS      H12A           -6.6658485604        1.5795818506       20.1146039693  MEMB      3               0.0000000000
       380         9  POPS      C13            -8.4030574447        1.1586511674       18.9635866023  MEMB      3               0.0000000000
       381         9  POPS      O13A           -8.5487604690        0.7849789369       17.7700690709  MEMB      3               0.0000000000
       382         9  POPS      O13B           -9.1751985528        0.8263404733       19.9051775518  MEMB      3               0.0000000000
       383         9  POPS      C11            -7.6772301739        3.4529660423       19.7848363950  MEMB      3               0.0000000000
       384         9  POPS      H11A           -8.4254307542        3.2994445442       20.5974653646  MEMB      3               0.0000000000
       385         9  POPS      H11B           -8.2138712072        3.9795116480       18.9579485738  MEMB      3               0.0000000000
       386         9  POPS      P              -5.9601453127        5.4204053750       19.5607441785  MEMB      3               0.0000000000
       387         9  POPS      O13            -4.7791304674        5.8600117226       20.3287214198  MEMB      3               0.0000000000
       388         9  POPS      O14            -7.0209918059        6.3954284874       19.2352883840  MEMB      3               0.0000000000
       389         9  POPS      O12            -6.5804586696        4.1997464236       20.3213766802  MEMB      3               0.0000000000
       390         9  POPS      O11            -5.4351842752        4.7419424199       18.2172735583  MEMB      3               0.0000000000
       391         9  POPS      C1             -4.3569236470        5.4780463450       17.5951436172  MEMB      3               0.0000000000
       392         9  POPS      HA             -3.3823059587        5.2103864570       18.0645554962  MEMB      3               0.0000000000
       393         9  POPS      HB             -4.4921644670        6.5832376134       17.6969195657  MEMB      3               0.0000000000
       394         9  POPS      C2             -4.2673355310        5.2124325266       16.0756969046  MEMB      3               0.0000000000
       395         9  POPS      HS             -3.4970801648        5.8818220450       15.6226719948  MEMB      3               0.0000000000
       396         9  POPS      O21            -5.5420159116        5.4337920558       15.4641117241  MEMB      3               0.0000000000
       397         9  POPS      C21            -5.9178467748        6.6878583214       15.3895036735  MEMB      3               0.0000000000
       398         9  POPS      O22            -5.2120733319        7.6597929542       15.6021073503  MEMB      3               0.0000000000
       399         9  POPS      C22            -7.3721935691        6.7265268954       14.9477273008  MEMB      3               0.0000000000
       400         9  POPS      H2R            -7.7530637097        7.7586947928       15.0748627119  MEMB      3               0.0000000000
       401         9  POPS      H2S            -7.9359013280        6.0522832710       15.6283465973  MEMB      3               0.0000000000
       402         9  POPS      C3             -3.8303921998        3.7606394795       15.7935565890  MEMB      3               0.0000000000
       403         9  POPS      HX             -4.4449951713        3.0570663321       16.3929008705  MEMB      3               0.0000000000
       404         9  POPS      HY             -2.7740175915        3.6386947813       16.1207587761  MEMB      3               0.0000000000
       405         9  POPS      O31            -3.9136864670        3.5038772860       14.3907192465  MEMB      3               0.0000000000
       406         9  POPS      C31            -5.0857595899        3.0765467046       13.9294011047  MEMB      3               0.0000000000
       407         9  POPS      O32            -6.0207001956        2.7006906171       14.6139294177  MEMB      3               0.0000000000
       408         9  POPS      C32            -5.0490511110        3.2196726494       12.3968000221  MEMB      3               0.0000000000
       409         9  POPS      H2X            -3.9941535072        3.0551261283       12.0848430841  MEMB      3               0.0000000000
       410         9  POPS      H2Y            -5.3039982054        4.2677123287       12.1422828481  MEMB      3               0.0000000000
       411         9  POPS      C23            -7.5601399615        6.2465433843       13.4895715367  MEMB      3               0.0000000000
       412         9  POPS      H3R            -8.6342539216        5.9854126601       13.3541158395  MEMB      3               0.0000000000
       413         9  POPS      H3S            -6.9896149681        5.3140167988       13.2913888870  MEMB      3               0.0000000000
       414         9  POPS      C24            -7.1917203243        7.3347237132       12.4757392461  MEMB      3               0.0000000000
       415         9  POPS      H4R            -6.0868690462        7.4583324487       12.4361646611  MEMB      3               0.0000000000
       416         9  POPS      H4S            -7.6242880024        8.3061024107       12.8045164710  MEMB      3               0.0000000000
       417         9  POPS      C25            -7.7219462402        7.0296161462       11.0731553608  MEMB      3               0.0000000000
       418         9  POPS      H5R            -8.7917451276        6.7588437652       11.1342133104  MEMB      3               0.0000000000
       419         9  POPS      H5S            -7.2063045752        6.1332447126       10.6792894172  MEMB      3               0.0000000000
       420         9  POPS      C26            -7.5993516268        8.2274623168       10.1230555350  MEMB      3               0.0000000000
       421         9  POPS      H6R            -6.5394442081        8.5560468706       10.0671605460  MEMB      3               0.0000000000
       422         9  POPS      H6S            -8.1862280907        9.0756884250       10.5440484792  MEMB      3               0.0000000000
       423         9  POPS      C27            -8.1307598695        7.9298144263        8.7091610312  MEMB      3               0.0000000000
       424         9  POPS      H7R            -8.2239134649        8.8866814939        8.1476532798  MEMB      3               0.0000000000
       425         9  POPS      H7S            -9.1571124253        7.5102848643        8.8064305331  MEMB      3               0.0000000000
       426         9  POPS      C28            -7.2712286651        6.9372421992        7.9007413002  MEMB      3               0.0000000000
       427         9  POPS      H8R            -7.8313347823        6.6667987165        6.9773461220  MEMB      3               0.0000000000
       428         9  POPS      H8S            -7.1699744107        5.9915790988        8.4778649808  MEMB      3               0.0000000000
       429         9  POPS      C29            -5.9312184314        7.5197592388        7.5202208409  MEMB      3               0.0000000000
       430         9  POPS      H91            -5.9555140643        8.2291133164        6.6779661135  MEMB      3               0.0000000000
       431         9  POPS      C210           -4.7449608566        7.2692015826        8.1069283898  MEMB      3               0.0000000000
       432         9  POPS      H101           -3.8473338079        7.7526527978        7.6933304469  MEMB      3               0.0000000000
       433         9  POPS      C211           -4.4776448648        6.3520902479        9.2783137701  MEMB      3               0.0000000000
       434         9  POPS      H11R           -5.4135771437        6.0014968851        9.7533338680  MEMB      3               0.0000000000
       435         9  POPS      H11S           -3.9163366029        6.9017050098       10.0619411095  MEMB      3               0.0000000000
       436         9  POPS      C212           -3.6680680358        5.0979114671        8.9032465667  MEMB      3               0.0000000000
       437         9  POPS      H12R           -3.4387013878        4.5232395015        9.8285972412  MEMB      3               0.0000000000
       438         9  POPS      H12S           -2.6919202073        5.4018871370        8.4623089533  MEMB      3               0.0000000000
       439         9  POPS      C213           -4.4254534162        4.2055908727        7.9147890031  MEMB      3               0.0000000000
       440         9  POPS      H13R           -4.7431733406        4.8481668587        7.0650179151  MEMB      3               0.0000000000
       441         9  POPS      H13S           -5.3543859492        3.8173059649        8.3867813237  MEMB      3               0.0000000000
       442         9  POPS      C214           -3.5795517644        3.0515298680        7.3726591785  MEMB      3               0.0000000000
       443         9  POPS      H14R           -3.3314531181        2.3720711496        8.2144257967  MEMB      3               0.0000000000
       444         9  POPS      H14S           -2.6285615864        3.4826888362        6.9798398968  MEMB      3               0.0000000000
       445         9  POPS      C215           -4.2938131499        2.2695878055        6.2597204283  MEMB      3               0.0000000000
       446         9  POPS      H15R           -5.1705938401        1.7301845784        6.6919868088  MEMB      3               0.0000000000
       447         9  POPS      H15S           -3.5952328705        1.5107320000        5.8580031002  MEMB      3               0.0000000000
       448         9  POPS      C216           -4.8260993906        3.1819750864        5.1407449367  MEMB      3               0.0000000000
       449         9  POPS      H16R           -4.0959027688        3.9930552573        4.9212954282  MEMB      3               0.0000000000
       450         9  POPS      H16S           -5.7584964729        3.6777034091        5.5029634435  MEMB      3               0.0000000000
       451         9  POPS      C217           -5.1609699585        2.4513347219        3.8412748711  MEMB      3               0.0000000000
       452         9  POPS      H17R           -5.6892538100        3.1687106072        3.1696286801  MEMB      3               0.0000000000
       453         9  POPS      H17S           -5.8753718283        1.6246113004        4.0602370981  MEMB      3               0.0000000000
       454         9  POPS      C218           -3.9311224063        1.9042831911        3.1302299873  MEMB      3               0.0000000000
       455         9  POPS      H18R           -3.1756534040        2.7130161330        3.0048016744  MEMB      3               0.0000000000
       456         9  POPS      H18S           -4.2044556692        1.5294634468        2.1232148624  MEMB      3               0.0000000000
       457         9  POPS      H18T           -3.5027125331        1.0639140270        3.7126068985  MEMB      3               0.0000000000
       458         9  POPS      C33            -5.9470425247        2.2449294666       11.5976399471  MEMB      3               0.0000000000
       459         9  POPS      H3X            -5.8147373183        1.2019615208       11.9586152891  MEMB      3               0.0000000000
       460         9  POPS      H3Y            -5.6067955326        2.2811776150       10.5369842379  MEMB      3               0.0000000000
       461         9  POPS      C34            -7.4391661038        2.6129369422       11.6108056043  MEMB      3               0.0000000000
       462         9  POPS      H4X            -7.5748752103        3.6739020284       11.3047379824  MEMB      3               0.0000000000
       463         9  POPS      H4Y            -7.8117336067        2.5111056910       12.6578010489  MEMB      3               0.0000000000
       464         9  POPS      C35            -8.3075067745        1.7163558275       10.7060375077  MEMB      3               0.0000000000
       465         9  POPS      H5X            -9.3789275147        1.9070087803       10.9514007261  MEMB      3               0.0000000000
       466         9  POPS      H5Y            -8.0980644609        0.6497910897       10.9492686473  MEMB      3               0.0000000000
       467         9  POPS      C36            -8.1229974831        1.9366188587        9.1930032485  MEMB      3               0.0000000000
       468         9  POPS      H6X            -7.0543728768        1.7907497478        8.9219040804  MEMB      3               0.0000000000
       469         9  POPS      H6Y            -8.3985962714        2.9813063615        8.9277892655  MEMB      3               0.0000000000
       470         9  POPS      C37            -8.9646485410        0.9479148322        8.3675844962  MEMB      3               0.0000000000
       471         9  POPS      H7X           -10.0469923388        1.1174371283        8.5614839268  MEMB      3               0.0000000000
       472         9  POPS      H7Y            -8.7202360775       -0.0805435724        8.7247484967  MEMB      3               0.0000000000
       473         9  POPS      C38            -8.6966292479        0.9886674432        6.8523156071  MEMB      3               0.0000000000
       474         9  POPS      H8X            -9.1281583628        0.0581284031        6.4188106317  MEMB      3               0.0000000000
       475         9  POPS      H8Y            -7.6008410918        0.9661257691        6.6641807670  MEMB      3               0.0000000000
       476         9  POPS      C39            -9.3181843330        2.2002948764        6.1374803431  MEMB      3               0.0000000000
       477         9  POPS      H9X            -8.8863607590        3.1335459990        6.5622500568  MEMB      3               0.0000000000
       478         9  POPS      H9Y           -10.4126911169        2.2140677088        6.3424186440  MEMB      3               0.0000000000
       479         9  POPS      C310           -9.1092868276        2.2029758597        4.6098022772  MEMB      3               0.0000000000
       480         9  POPS      H10X           -8.0238744336        2.2815452195        4.3847980925  MEMB      3               0.0000000000
       481         9  POPS      H10Y           -9.6046558614        3.1089827397        4.1933965522  MEMB      3               0.0000000000
       482         9  POPS      C311           -9.6826155557        0.9541990492        3.9192259401  MEMB      3               0.0000000000
       483         9  POPS      H11X          -10.7412031105        0.8250899569        4.2386437998  MEMB      3               0.0000000000
       484         9  POPS      H11Y           -9.1079392950        0.0607097116        4.2548913135  MEMB      3               0.0000000000
       485         9  POPS      C312           -9.6384003602        0.9934338919        2.3833182583  MEMB      3               0.0000000000
       486         9  POPS      H12X           -9.9596390069       -0.0087466009        2.0146368239  MEMB      3               0.0000000000
       487         9  POPS      H12Y           -8.5961401775        1.1709332987        2.0448192692  MEMB      3               0.0000000000
       488         9  POPS      C313          -10.5464344960        2.0584499343        1.7529545106  MEMB      3               0.0000000000
       489         9  POPS      H13X           -9.9901369492        3.0207717789        1.6937438008  MEMB      3               0.0000000000
       490         9  POPS      H13Y          -11.4172342973        2.2195937461        2.4224706034  MEMB      3               0.0000000000
       491         9  POPS      C314          -11.0714868915        1.6817275959        0.3566234060  MEMB      3               0.0000000000
       492         9  POPS      H14X          -11.6038078195        2.5621771942       -0.0698224620  MEMB      3               0.0000000000
       493         9  POPS      H14Y          -11.8110665587        0.8551420628        0.4585519979  MEMB      3               0.0000000000
       494         9  POPS      C315           -9.9748632903        1.2385568641       -0.6205566315  MEMB      3               0.0000000000
       495         9  POPS      H15X           -9.5097033673        0.2949397621       -0.2549034135  MEMB      3               0.0000000000
       496         9  POPS      H15Y           -9.1771991257        2.0126345173       -0.6305178299  MEMB      3               0.0000000000
       497         9  POPS      C316          -10.4861134766        1.0091498592       -2.0437264699  MEMB      3               0.0000000000
       498         9  POPS      H16X          -10.9012695108        1.9490382095       -2.4673146156  MEMB      3               0.0000000000
       499         9  POPS      H16Y          -11.2876254668        0.2411994862       -2.0455677148  MEMB      3               0.0000000000
       500         9  POPS      H16Z           -9.6637446192        0.6587640086       -2.7047617739  MEMB      3               0.0000000000
       501        10  POPC      N               6.5373172648       -2.3321133639       20.7545253414  MEMB      4               0.0000000000
       502        10  POPC      C12             5.1443607045       -1.7505429821       20.6244684286  MEMB      4               0.0000000000
       503        10  POPC      H12A            4.8499367916       -1.3732985939       21.5949967503  MEMB      4               0.0000000000
       504        10  POPC      H12B            4.4679923485       -2.5493304516       20.3595268409  MEMB      4               0.0000000000
       505        10  POPC      C13             7.5501885404       -1.2248201126       20.7892307578  MEMB      4               0.0000000000
       506        10  POPC      H13A            7.5687503567       -0.7119898581       19.8206872947  MEMB      4               0.0000000000
       507        10  POPC      H13B            7.3415336570       -0.4799870420       21.5358399529  MEMB      4               0.0000000000
       508        10  POPC      H13C            8.5542390812       -1.6171946043       20.9191881410  MEMB      4               0.0000000000
       509        10  POPC      C14             6.7050216421       -3.2306856690       21.9408745418  MEMB      4               0.0000000000
       510        10  POPC      H14A            7.6721809180       -3.7332209260       21.8970171125  MEMB      4               0.0000000000
       511        10  POPC      H14B            6.6536151319       -2.6925519336       22.8756547858  MEMB      4               0.0000000000
       512        10  POPC      H14C            5.9538117611       -4.0174214601       21.9351060012  MEMB      4               0.0000000000
       513        10  POPC      C15             6.8758062034       -3.1496834657       19.5470241702  MEMB      4               0.0000000000
       514        10  POPC      H15A            6.2619985219       -4.0244752693       19.4515636652  MEMB      4               0.0000000000
       515        10  POPC      H15B            7.9296766156       -3.4295796143       19.5763821267  MEMB      4               0.0000000000
       516        10  POPC      H15C            6.7701640804       -2.5187877804       18.6592532897  MEMB      4               0.0000000000
       517        10  POPC      C11             4.9316792631       -0.5941439615       19.6002874007  MEMB      4               0.0000000000
       518        10  POPC      H11A            5.4354634604        0.3220241580       19.9969587103  MEMB      4               0.0000000000
       519        10  POPC      H11B            3.8487470268       -0.3427401090       19.5662633460  MEMB      4               0.0000000000
       520        10  POPC      P               6.5589319730       -0.1592989454       17.5651718040  MEMB      4               0.0000000000
       521        10  POPC      O13             7.7375593901       -1.0434572702       17.7131042735  MEMB      4               0.0000000000
       522        10  POPC      O14             6.6201465675        1.1962326366       18.1527611048  MEMB      4               0.0000000000
       523        10  POPC      O12             5.3512913453       -0.9389884886       18.2773875025  MEMB      4               0.0000000000
       524        10  POPC      O11             6.1022344206       -0.1304358272       16.0589199203  MEMB      4               0.0000000000
       525        10  POPC      C1              5.0447270399       -0.9851369676       15.6161938456  MEMB      4               0.0000000000
       526        10  POPC      HA              4.8016093877       -0.6911755530       14.5713609112  MEMB      4               0.0000000000
       527        10  POPC      HB              4.1171109182       -0.8332941816       16.2141604723  MEMB      4               0.0000000000
       528        10  POPC      C2              5.4526844004       -2.4898811899       15.6034829161  MEMB      4               0.0000000000
       529        10  POPC      HS              5.5121951467       -2.8330329288       16.6638089866  MEMB      4               0.0000000000
       530        10  POPC      O21             6.7262028839       -2.5867453993       14.9536817308  MEMB      4               0.0000000000
       531        10  POPC      C21             7.6734783996       -3.2558838433       15.5797058052  MEMB      4               0.0000000000
       532        10  POPC      O22             7.5152627372       -4.1772107059       16.3728987324  MEMB      4               0.0000000000
       533        10  POPC      C22             9.0207787209       -2.6311499139       15.1791879579  MEMB      4               0.0000000000
       534        10  POPC      H2R             9.7317814845       -2.9060482919       15.9866145323  MEMB      4               0.0000000000
       535        10  POPC      H2S             8.9093299887       -1.5304651830       15.2150623645  MEMB      4               0.0000000000
       536        10  POPC      C3              4.3797685490       -3.3603498293       14.8864331473  MEMB      4               0.0000000000
       537        10  POPC      HX              3.5182214742       -3.4458461979       15.5832764555  MEMB      4               0.0000000000
       538        10  POPC      HY              4.7834850757       -4.3872434007       14.7448334734  MEMB      4               0.0000000000
       539        10  POPC      O31             3.8941783023       -2.7653051811       13.6616072114  MEMB      4               0.0000000000
       540        10  POPC      C31             4.6190686726       -3.0462086502       12.5772898144  MEMB      4               0.0000000000
       541        10  POPC      O32             5.5314230911       -3.8436525637       12.5257454828  MEMB      4               0.0000000000
       542        10  POPC      C32             4.0768332834       -2.2617633664       11.3797842021  MEMB      4               0.0000000000
       543        10  POPC      H2X             4.3405673856       -1.1926417619       11.5098376546  MEMB      4               0.0000000000
       544        10  POPC      H2Y             2.9718845315       -2.3572097929       11.3841018397  MEMB      4               0.0000000000
       545        10  POPC      C23             9.5935354439       -3.1154321754       13.8200706709  MEMB      4               0.0000000000
       546        10  POPC      H3R             9.4163930059       -4.2104973678       13.7437705253  MEMB      4               0.0000000000
       547        10  POPC      H3S            10.6918713330       -2.9348147110       13.8115721558  MEMB      4               0.0000000000
       548        10  POPC      C24             9.0204309405       -2.5222456949       12.5278133987  MEMB      4               0.0000000000
       549        10  POPC      H4R             7.9143513014       -2.4737912304       12.5933556232  MEMB      4               0.0000000000
       550        10  POPC      H4S             9.2508088427       -3.2535487365       11.7161078646  MEMB      4               0.0000000000
       551        10  POPC      C25             9.6398120654       -1.1813747735       12.1040584210  MEMB      4               0.0000000000
       552        10  POPC      H5R             9.3804558757       -1.0122126067       11.0312390908  MEMB      4               0.0000000000
       553        10  POPC      H5S            10.7473812458       -1.2376042465       12.1731209221  MEMB      4               0.0000000000
       554        10  POPC      C26             9.1170031602        0.0365214463       12.8821860548  MEMB      4               0.0000000000
       555        10  POPC      H6R             9.5589913354        0.9407473488       12.4129103971  MEMB      4               0.0000000000
       556        10  POPC      H6S             9.4724085651        0.0300840029       13.9347416015  MEMB      4               0.0000000000
       557        10  POPC      C27             7.5751324836        0.1035455908       12.8641243355  MEMB      4               0.0000000000
       558        10  POPC      H7R             7.1839101221       -0.5518497009       13.6742383876  MEMB      4               0.0000000000
       559        10  POPC      H7S             7.2165508928       -0.3242726676       11.9013623725  MEMB      4               0.0000000000
       560        10  POPC      C28             6.9700646194        1.5039776793       13.0433597958  MEMB      4               0.0000000000
       561        10  POPC      H8R             7.2337280667        1.8806578717       14.0608474673  MEMB      4               0.0000000000
       562        10  POPC      H8S             5.8594535978        1.4334789647       13.0099887431  MEMB      4               0.0000000000
       563        10  POPC      C29             7.4967279126        2.4240083669       11.9795887804  MEMB      4               0.0000000000
       564        10  POPC      H91             8.2128965994        3.1602341042       12.3566142732  MEMB      4               0.0000000000
       565        10  POPC      C210            7.1821946591        2.4536831235       10.6752147678  MEMB      4               0.0000000000
       566        10  POPC      H101            7.7295701974        3.1628602100       10.0409060046  MEMB      4               0.0000000000
       567        10  POPC      C211            6.2177036316        1.5892389893        9.9067377510  MEMB      4               0.0000000000
       568        10  POPC      H11R            5.2925075161        2.1789479146        9.7063473583  MEMB      4               0.0000000000
       569        10  POPC      H11S            5.8956963654        0.6884839168       10.4735604389  MEMB      4               0.0000000000
       570        10  POPC      C212            6.7987162534        1.1774293732        8.5374964805  MEMB      4               0.0000000000
       571        10  POPC      H12R            7.4270254473        0.2697421014        8.6694559003  MEMB      4               0.0000000000
       572        10  POPC      H12S            7.4571479671        1.9712823818        8.1172307478  MEMB      4               0.0000000000
       573        10  POPC      C213            5.6935406663        0.9165783342        7.5005333675  MEMB      4               0.0000000000
       574        10  POPC      H13R            5.3155956886        1.8900084708        7.1139209722  MEMB      4               0.0000000000
       575        10  POPC      H13S            4.8320609453        0.4166714963        7.9985133435  MEMB      4               0.0000000000
       576        10  POPC      C214            6.1534342727        0.0370371262        6.3294342520  MEMB      4               0.0000000000
       577        10  POPC      H14R            6.3417732929       -0.9777541021        6.7463167650  MEMB      4               0.0000000000
       578        10  POPC      H14S            7.1118334634        0.4146060727        5.9118498046  MEMB      4               0.0000000000
       579        10  POPC      C215            5.0991377405       -0.0658618689        5.2177848453  MEMB      4               0.0000000000
       580        10  POPC      H15R            4.0903552689       -0.0506568674        5.6915628265  MEMB      4               0.0000000000
       581        10  POPC      H15S            5.2128906276       -1.0435278183        4.6978670983  MEMB      4               0.0000000000
       582        10  POPC      C216            5.1869758699        1.0663122086        4.1792018172  MEMB      4               0.0000000000
       583        10  POPC      H16R            5.3442353897        2.0357771278        4.7016008500  MEMB      4               0.0000000000
       584        10  POPC      H16S            4.2076659552        1.1453780923        3.6549524158  MEMB      4               0.0000000000
       585        10  POPC      C217            6.2853303996        0.8461571305        3.1279676508  MEMB      4               0.0000000000
       586        10  POPC      H17R            6.1742348124       -0.1767460309        2.7003377535  MEMB      4               0.0000000000
       587        10  POPC      H17S            7.2797365016        0.8892594834        3.6282262390  MEMB      4               0.0000000000
       588        10  POPC      C218            6.2363532016        1.8670494969        1.9878868318  MEMB      4               0.0000000000
       589        10  POPC      H18R            5.2787021345        1.7875703206        1.4274899541  MEMB      4               0.0000000000
       590        10  POPC      H18S            7.0762747085        1.7093492225        1.2786117301  MEMB      4               0.0000000000
       591        10  POPC      H18T            6.3097308767        2.8985790356        2.3941656603  MEMB      4               0.0000000000
       592        10  POPC      C33             4.6423633602       -2.7992466229       10.0436654984  MEMB      4               0.0000000000
       593        10  POPC      H3X             4.0309524992       -2.4202708042        9.1938382524  MEMB      4               0.0000000000
       594        10  POPC      H3Y             4.5626170297       -3.9105724644       10.0333572639  MEMB      4               0.0000000000
       595        10  POPC      C34             6.1050696865       -2.3951449176        9.8006444036  MEMB      4               0.0000000000
       596        10  POPC      H4X             6.6477420189       -2.3431362116       10.7706969860  MEMB      4               0.0000000000
       597        10  POPC      H4Y             6.1372324134       -1.3836212039        9.3485233523  MEMB      4               0.0000000000
       598        10  POPC      C35             6.8479271531       -3.4001938819        8.9139271061  MEMB      4               0.0000000000
       599        10  POPC      H5X             6.2823002763       -3.5303931723        7.9649114132  MEMB      4               0.0000000000
       600        10  POPC      H5Y             6.8706099996       -4.3801757440        9.4430682395  MEMB      4               0.0000000000
       601        10  POPC      C36             8.2869796668       -2.9848362568        8.5856828193  MEMB      4               0.0000000000
       602        10  POPC      H6X             8.8852341032       -2.9180259760        9.5192281047  MEMB      4               0.0000000000
       603        10  POPC      H6Y             8.2603396037       -1.9617720833        8.1489851060  MEMB      4               0.0000000000
       604        10  POPC      C37             8.9578991115       -3.9600621814        7.6018130160  MEMB      4               0.0000000000
       605        10  POPC      H7X             8.1778631175       -4.6091616960        7.1428690040  MEMB      4               0.0000000000
       606        10  POPC      H7Y             9.6575806961       -4.6256671160        8.1545677114  MEMB      4               0.0000000000
       607        10  POPC      C38             9.7030320071       -3.2566233225        6.4584658773  MEMB      4               0.0000000000
       608        10  POPC      H8X            10.2170530400       -4.0192572005        5.8314714795  MEMB      4               0.0000000000
       609        10  POPC      H8Y            10.4900286610       -2.6012525884        6.8956870904  MEMB      4               0.0000000000
       610        10  POPC      C39             8.7793103508       -2.4099880792        5.5670604223  MEMB      4               0.0000000000
       611        10  POPC      H9X             9.1981890272       -1.3784747309        5.5125233625  MEMB      4               0.0000000000
       612        10  POPC      H9Y             7.7664610000       -2.3341725944        6.0138072719  MEMB      4               0.0000000000
       613        10  POPC      C310            8.6249324797       -2.9330034875        4.1351429081  MEMB      4               0.0000000000
       614        10  POPC      H10X            9.6291964484       -3.1472033422        3.7086570606  MEMB      4               0.0000000000
       615        10  POPC      H10Y            8.1723313602       -2.1190880071        3.5229311933  MEMB      4               0.0000000000
       616        10  POPC      C311            7.7396447098       -4.1800142490        3.9874506006  MEMB      4               0.0000000000
       617        10  POPC      H11X            6.7212085636       -3.9778196495        4.3845737232  MEMB      4               0.0000000000
       618        10  POPC      H11Y            8.1826775927       -5.0163167053        4.5698942474  MEMB      4               0.0000000000
       619        10  POPC      C312            7.6663535647       -4.5578713087        2.5048840793  MEMB      4               0.0000000000
       620        10  POPC      H12X            8.7190107811       -4.6591624210        2.1510038066  MEMB      4               0.0000000000
       621        10  POPC      H12Y            7.2041503998       -3.7128747613        1.9529240352  MEMB      4               0.0000000000
       622        10  POPC      C313            6.9162234433       -5.8448765312        2.1418575660  MEMB      4               0.0000000000
       623        10  POPC      H13X            5.8305449486       -5.6379892556        2.0285541300  MEMB      4               0.0000000000
       624        10  POPC      H13Y            7.0305160752       -6.5670357757        2.9748795127  MEMB      4               0.0000000000
       625        10  POPC      C314            7.4868407898       -6.4695426505        0.8519681135  MEMB      4               0.0000000000
       626        10  POPC      H14X            8.5927768662       -6.5454753989        0.9495277874  MEMB      4               0.0000000000
       627        10  POPC      H14Y            7.2808324351       -5.8035643973       -0.0102195639  MEMB      4               0.0000000000
       628        10  POPC      C315            6.9409543735       -7.8571818908        0.5172179403  MEMB      4               0.0000000000
       629        10  POPC      H15X            6.9108278448       -8.4720292236        1.4437412614  MEMB      4               0.0000000000
       630        10  POPC      H15Y            7.6454097372       -8.3590667184       -0.1872374178  MEMB      4               0.0000000000
       631        10  POPC      C316            5.5605339917       -7.8035036468       -0.1346655467  MEMB      4               0.0000000000
       632        10  POPC      H16X            4.8529908963       -7.2153382229        0.4860423571  MEMB      4               0.0000000000
       633        10  POPC      H16Y            5.1627437147       -8.8277400016       -0.2510129781  MEMB      4               0.0000000000
       634        10  POPC      H16Z            5.6071870772       -7.3406368475       -1.1405797022  MEMB      4               0.0000000000
       635        11  POPC      N               0.8874632028       -6.1910002090       17.6542748832  MEMB      5               0.0000000000
       636        11  POPC      C12             1.7116404060       -5.9616970289       18.9298842334  MEMB      5               0.0000000000
       637        11  POPC      H12A            1.0361027441       -5.7435881583       19.7554663255  MEMB      5               0.0000000000
       638        11  POPC      H12B            2.3489492509       -5.0943528300       18.8101153930  MEMB      5               0.0000000000
       639        11  POPC      C13             0.0105611064       -7.3797359742       17.9219163913  MEMB      5               0.0000000000
       640        11  POPC      H13A           -0.5788050154       -7.6802224190       17.0755889698  MEMB      5               0.0000000000
       641        11  POPC      H13B            0.6657005862       -8.2087363982       18.2105635959  MEMB      5               0.0000000000
       642        11  POPC      H13C           -0.5877208383       -7.2468644080       18.8161387666  MEMB      5               0.0000000000
       643        11  POPC      C14             0.0740136651       -4.9754709423       17.3110990612  MEMB      5               0.0000000000
       644        11  POPC      H14A           -0.5244598588       -5.1354242260       16.4209139131  MEMB      5               0.0000000000
       645        11  POPC      H14B           -0.5792210766       -4.6845999167       18.1230890443  MEMB      5               0.0000000000
       646        11  POPC      H14C            0.7087724696       -4.1188776600       17.0900187121  MEMB      5               0.0000000000
       647        11  POPC      C15             1.7826778524       -6.5253340825       16.4940557419  MEMB      5               0.0000000000
       648        11  POPC      H15A            2.3433271493       -7.4349101613       16.6998725276  MEMB      5               0.0000000000
       649        11  POPC      H15B            2.4920581810       -5.7352039550       16.2840031972  MEMB      5               0.0000000000
       650        11  POPC      H15C            1.2038128760       -6.6972715742       15.5948212680  MEMB      5               0.0000000000
       651        11  POPC      C11             2.5904771531       -7.1325006717       19.4580555322  MEMB      5               0.0000000000
       652        11  POPC      H11A            3.2906306306       -6.6891350255       20.2071671275  MEMB      5               0.0000000000
       653        11  POPC      H11B            3.2096337827       -7.5570471745       18.6356939302  MEMB      5               0.0000000000
       654        11  POPC      P               2.5713885381       -9.3373125352       20.8065102810  MEMB      5               0.0000000000
       655        11  POPC      O13             1.6560816754      -10.0413385214       21.7344158129  MEMB      5               0.0000000000
       656        11  POPC      O14             3.8586150222       -8.8595939990       21.3754252526  MEMB      5               0.0000000000
       657        11  POPC      O12             1.7888841714       -8.1494887474       20.0782697206  MEMB      5               0.0000000000
       658        11  POPC      O11             2.9238534488      -10.3201950378       19.6120537646  MEMB      5               0.0000000000
       659        11  POPC      C1              2.1739713759      -10.4097519685       18.4119322579  MEMB      5               0.0000000000
       660        11  POPC      HA              1.9356587921       -9.4102988728       17.9896889757  MEMB      5               0.0000000000
       661        11  POPC      HB              1.2208182712      -10.9525169430       18.6029451303  MEMB      5               0.0000000000
       662        11  POPC      C2              3.0167592466      -11.1436053542       17.3437281766  MEMB      5               0.0000000000
       663        11  POPC      HS              3.5195195073      -11.9965180598       17.8473627816  MEMB      5               0.0000000000
       664        11  POPC      O21             4.0008471877      -10.2300663497       16.8425982229  MEMB      5               0.0000000000
       665        11  POPC      C21             4.9041490163      -10.7779090519       16.0631217204  MEMB      5               0.0000000000
       666        11  POPC      O22             5.1440336357      -11.9683950764       15.9847075625  MEMB      5               0.0000000000
       667        11  POPC      C22             5.6766630543       -9.6960865909       15.3201639991  MEMB      5               0.0000000000
       668        11  POPC      H2R             5.8483455742      -10.0412728855       14.2797337449  MEMB      5               0.0000000000
       669        11  POPC      H2S             6.6534009927       -9.5967316356       15.8289306044  MEMB      5               0.0000000000
       670        11  POPC      C3              2.1220133142      -11.6850254189       16.1998418749  MEMB      5               0.0000000000
       671        11  POPC      HX              1.3559702419      -12.3550360193       16.6592749862  MEMB      5               0.0000000000
       672        11  POPC      HY              2.7198105690      -12.2891492606       15.4823859138  MEMB      5               0.0000000000
       673        11  POPC      O31             1.5365839793      -10.5622742576       15.5232551288  MEMB      5               0.0000000000
       674        11  POPC      C31             0.4336654056      -10.8222686664       14.8485690042  MEMB      5               0.0000000000
       675        11  POPC      O32            -0.1636542650      -11.8839263414       14.8275752924  MEMB      5               0.0000000000
       676        11  POPC      C32            -0.0346387951       -9.5258879275       14.1829667216  MEMB      5               0.0000000000
       677        11  POPC      H2X            -0.0045186347       -8.7300114567       14.9545154553  MEMB      5               0.0000000000
       678        11  POPC      H2Y            -1.0873466177       -9.6665467628       13.8626497523  MEMB      5               0.0000000000
       679        11  POPC      C23             5.0063721130       -8.3040569396       15.3315231918  MEMB      5               0.0000000000
       680        11  POPC      H3R             4.7100008527       -8.0361687330       16.3730622507  MEMB      5               0.0000000000
       681        11  POPC      H3S             4.0832498574       -8.3037101708       14.7123962818  MEMB      5               0.0000000000
       682        11  POPC      C24             5.9779994962       -7.2219003396       14.8655163017  MEMB      5               0.0000000000
       683        11  POPC      H4R             7.0167389047       -7.6102151073       14.9014923796  MEMB      5               0.0000000000
       684        11  POPC      H4S             5.9456458026       -6.3633730098       15.5747725103  MEMB      5               0.0000000000
       685        11  POPC      C25             5.6897457571       -6.6901011970       13.4643166361  MEMB      5               0.0000000000
       686        11  POPC      H5R             6.4773123286       -5.9269177509       13.2475168750  MEMB      5               0.0000000000
       687        11  POPC      H5S             4.7076124838       -6.1683311159       13.4412969596  MEMB      5               0.0000000000
       688        11  POPC      C26             5.7089100390       -7.7083829299       12.3193487282  MEMB      5               0.0000000000
       689        11  POPC      H6R             4.7429118569       -8.2557064934       12.2718255229  MEMB      5               0.0000000000
       690        11  POPC      H6S             6.5062886130       -8.4601302791       12.4799743293  MEMB      5               0.0000000000
       691        11  POPC      C27             5.9476660929       -6.9493842316       11.0068821409  MEMB      5               0.0000000000
       692        11  POPC      H7R             6.9165654760       -6.4034966911       11.0815637983  MEMB      5               0.0000000000
       693        11  POPC      H7S             5.1545767277       -6.1684090568       10.9403395785  MEMB      5               0.0000000000
       694        11  POPC      C28             5.9418599643       -7.8211588944        9.7450056060  MEMB      5               0.0000000000
       695        11  POPC      H8R             5.0098072038       -8.4295234951        9.7326623904  MEMB      5               0.0000000000
       696        11  POPC      H8S             6.7971380563       -8.5300067349        9.7852071217  MEMB      5               0.0000000000
       697        11  POPC      C29             6.0327853382       -6.9237608575        8.5367266073  MEMB      5               0.0000000000
       698        11  POPC      H91             7.0356254279       -6.7833947517        8.1081563229  MEMB      5               0.0000000000
       699        11  POPC      C210            4.9942169526       -6.2749176816        7.9855019370  MEMB      5               0.0000000000
       700        11  POPC      H101            5.1779845511       -5.6145708768        7.1247893695  MEMB      5               0.0000000000
       701        11  POPC      C211            3.5662925626       -6.3345801637        8.4738735227  MEMB      5               0.0000000000
       702        11  POPC      H11R            3.1032811720       -5.3246886142        8.4789942953  MEMB      5               0.0000000000
       703        11  POPC      H11S            3.5092858586       -6.6944484161        9.5267175883  MEMB      5               0.0000000000
       704        11  POPC      C212            2.7271317704       -7.2991561837        7.6161021762  MEMB      5               0.0000000000
       705        11  POPC      H12R            2.1613761055       -7.9524304814        8.3153565210  MEMB      5               0.0000000000
       706        11  POPC      H12S            3.3773755824       -7.9965329699        7.0458280667  MEMB      5               0.0000000000
       707        11  POPC      C213            1.7152805784       -6.6164059558        6.6750046532  MEMB      5               0.0000000000
       708        11  POPC      H13R            0.9047303713       -6.1887789067        7.3066963090  MEMB      5               0.0000000000
       709        11  POPC      H13S            1.2500976955       -7.3997133058        6.0367992059  MEMB      5               0.0000000000
       710        11  POPC      C214            2.2709349581       -5.4873615166        5.7879742074  MEMB      5               0.0000000000
       711        11  POPC      H14R            3.3554073474       -5.3400323620        5.9665125861  MEMB      5               0.0000000000
       712        11  POPC      H14S            1.7574352166       -4.5473914308        6.0987811251  MEMB      5               0.0000000000
       713        11  POPC      C215            2.0436830963       -5.6864080126        4.2785939655  MEMB      5               0.0000000000
       714        11  POPC      H15R            1.8907477642       -4.6763405346        3.8430534086  MEMB      5               0.0000000000
       715        11  POPC      H15S            1.1125087937       -6.2672180880        4.1009294565  MEMB      5               0.0000000000
       716        11  POPC      C216            3.2368587299       -6.3398335998        3.5622020460  MEMB      5               0.0000000000
       717        11  POPC      H16R            4.1680593568       -5.7948254177        3.8366356588  MEMB      5               0.0000000000
       718        11  POPC      H16S            3.1047237774       -6.2489324252        2.4609509022  MEMB      5               0.0000000000
       719        11  POPC      C217            3.3889958796       -7.8229024653        3.9107236620  MEMB      5               0.0000000000
       720        11  POPC      H17R            2.4655973855       -8.3516210302        3.5902588367  MEMB      5               0.0000000000
       721        11  POPC      H17S            3.4668884470       -7.9288684945        5.0109788092  MEMB      5               0.0000000000
       722        11  POPC      C218            4.6083957165       -8.5122663380        3.3023862287  MEMB      5               0.0000000000
       723        11  POPC      H18R            5.5394849955       -7.9856147560        3.5969768124  MEMB      5               0.0000000000
       724        11  POPC      H18S            4.5350966973       -8.5321506376        2.1986212405  MEMB      5               0.0000000000
       725        11  POPC      H18T            4.6749828770       -9.5611901020        3.6614473711  MEMB      5               0.0000000000
       726        11  POPC      C33             0.8234097641       -9.1028468560       12.9634469259  MEMB      5               0.0000000000
       727        11  POPC      H3X             0.4981763960       -9.6875044600       12.0734776905  MEMB      5               0.0000000000
       728        11  POPC      H3Y             1.8970213745       -9.3501436724       13.1366954816  MEMB      5               0.0000000000
       729        11  POPC      C34             0.7642644526       -7.5942240473       12.6353103944  MEMB      5               0.0000000000
       730        11  POPC      H4X             1.2588992621       -7.4167268043       11.6526417895  MEMB      5               0.0000000000
       731        11  POPC      H4Y             1.3705469667       -7.0483056846       13.3927433220  MEMB      5               0.0000000000
       732        11  POPC      C35            -0.6438703686       -6.9699948046       12.6256484488  MEMB      5               0.0000000000
       733        11  POPC      H5X            -0.5488253596       -5.8701566585       12.4721089321  MEMB      5               0.0000000000
       734        11  POPC      H5Y            -1.0970569412       -7.1117323927       13.6271706647  MEMB      5               0.0000000000
       735        11  POPC      C36            -1.6213038870       -7.5103936901       11.5648682562  MEMB      5               0.0000000000
       736        11  POPC      H6X            -2.6078033241       -7.0168213097       11.7454057069  MEMB      5               0.0000000000
       737        11  POPC      H6Y            -1.7742232526       -8.6048454544       11.6795480347  MEMB      5               0.0000000000
       738        11  POPC      C37            -1.2143688484       -7.1838970527       10.1171940284  MEMB      5               0.0000000000
       739        11  POPC      H7X            -0.5793080713       -6.2697879457       10.1226233595  MEMB      5               0.0000000000
       740        11  POPC      H7Y            -2.1295893265       -6.9437989004        9.5294232447  MEMB      5               0.0000000000
       741        11  POPC      C38            -0.4726458597       -8.3201797844        9.3956954227  MEMB      5               0.0000000000
       742        11  POPC      H8X             0.2867098129       -8.7746913786       10.0651753005  MEMB      5               0.0000000000
       743        11  POPC      H8Y             0.0610173474       -7.8696214610        8.5337232207  MEMB      5               0.0000000000
       744        11  POPC      C39            -1.4011919760       -9.4104010777        8.8398768441  MEMB      5               0.0000000000
       745        11  POPC      H9X            -2.0308054544       -8.9557073132        8.0410506744  MEMB      5               0.0000000000
       746        11  POPC      H9Y            -2.0828642596       -9.7532732629        9.6469264521  MEMB      5               0.0000000000
       747        11  POPC      C310           -0.6556076318      -10.6242735490        8.2492179008  MEMB      5               0.0000000000
       748        11  POPC      H10X           -1.3883926690      -11.2638021138        7.7093867837  MEMB      5               0.0000000000
       749        11  POPC      H10Y           -0.2283932420      -11.2360077122        9.0735724569  MEMB      5               0.0000000000
       750        11  POPC      C311            0.4625893485      -10.2317753509        7.2770963097  MEMB      5               0.0000000000
       751        11  POPC      H11X            1.3762573902       -9.9673892802        7.8542782385  MEMB      5               0.0000000000
       752        11  POPC      H11Y            0.1319865115       -9.3217454575        6.7238287523  MEMB      5               0.0000000000
       753        11  POPC      C312            0.8107755206      -11.3006503239        6.2307439447  MEMB      5               0.0000000000
       754        11  POPC      H12X           -0.1063895216      -11.5268240211        5.6397723067  MEMB      5               0.0000000000
       755        11  POPC      H12Y            1.1462471585      -12.2401653892        6.7203672820  MEMB      5               0.0000000000
       756        11  POPC      C313            1.9027868091      -10.7733774433        5.2908025364  MEMB      5               0.0000000000
       757        11  POPC      H13X            2.8819240658      -10.7333714195        5.8131778101  MEMB      5               0.0000000000
       758        11  POPC      H13Y            1.6257560477       -9.7197941966        5.0555340921  MEMB      5               0.0000000000
       759        11  POPC      C314            2.0258984652      -11.5051807967        3.9459154556  MEMB      5               0.0000000000
       760        11  POPC      H14X            2.5476053520      -10.8021659034        3.2576925251  MEMB      5               0.0000000000
       761        11  POPC      H14Y            1.0187219751      -11.6973638210        3.5174417207  MEMB      5               0.0000000000
       762        11  POPC      C315            2.8677095202      -12.7861106523        3.9577210019  MEMB      5               0.0000000000
       763        11  POPC      H15X            2.2255560853      -13.6442920119        3.6592132336  MEMB      5               0.0000000000
       764        11  POPC      H15Y            3.2234071898      -12.9886187502        4.9915090701  MEMB      5               0.0000000000
       765        11  POPC      C316            4.0653177026      -12.7057280746        3.0023003639  MEMB      5               0.0000000000
       766        11  POPC      H16X            4.6299574886      -13.6619029712        2.9949091259  MEMB      5               0.0000000000
       767        11  POPC      H16Y            4.7550231605      -11.8926758663        3.3152332606  MEMB      5               0.0000000000
       768        11  POPC      H16Z            3.7283537133      -12.4946597558        1.9661425510  MEMB      5               0.0000000000
       769        12  POPC      N              -1.6999464521        9.3749140079       18.2266669299  MEMB      6               0.0000000000
       770        12  POPC      C12            -2.5088544551       10.1982179405       19.2145093461  MEMB      6               0.0000000000
       771        12  POPC      H12A           -1.8593998545       10.9355014212       19.6875475098  MEMB      6               0.0000000000
       772        12  POPC      H12B           -2.8720911556        9.5697785866       20.0256765206  MEMB      6               0.0000000000
       773        12  POPC      C13            -1.1583756561       10.2900489894       17.1797248444  MEMB      6               0.0000000000
       774        12  POPC      H13A           -0.5344970375       11.0554305155       17.6438973058  MEMB      6               0.0000000000
       775        12  POPC      H13B           -0.5919912111        9.7568464417       16.4313870566  MEMB      6               0.0000000000
       776        12  POPC      H13C           -1.9807414392       10.8169246950       16.7062821896  MEMB      6               0.0000000000
       777        12  POPC      C14            -0.5312735880        8.7892100737       18.9500068421  MEMB      6               0.0000000000
       778        12  POPC      H14A           -0.1165745829        7.9745076342       18.3775203627  MEMB      6               0.0000000000
       779        12  POPC      H14B            0.2207244357        9.5533538648       19.1047526739  MEMB      6               0.0000000000
       780        12  POPC      H14C           -0.8465013632        8.4073249629       19.9229978358  MEMB      6               0.0000000000
       781        12  POPC      C15            -2.5590683890        8.2930494075       17.6677282486  MEMB      6               0.0000000000
       782        12  POPC      H15A           -2.8936600511        7.6156897458       18.4599538553  MEMB      6               0.0000000000
       783        12  POPC      H15B           -2.0520870541        7.7183983012       16.9125062168  MEMB      6               0.0000000000
       784        12  POPC      H15C           -3.4608898011        8.6955254628       17.2045222481  MEMB      6               0.0000000000
       785        12  POPC      C11            -3.7076104411       10.9937323842       18.6734962748  MEMB      6               0.0000000000
       786        12  POPC      H11A           -4.5438958916       10.2909356605       18.4491954012  MEMB      6               0.0000000000
       787        12  POPC      H11B           -3.4584720880       11.5349440729       17.7341627376  MEMB      6               0.0000000000
       788        12  POPC      P              -3.2336123781       13.2040331277       19.9701392108  MEMB      6               0.0000000000
       789        12  POPC      O13            -1.8204091385       12.7786832999       20.1075100842  MEMB      6               0.0000000000
       790        12  POPC      O14            -3.8871045616       13.9135612563       21.1068976333  MEMB      6               0.0000000000
       791        12  POPC      O12            -4.1091991059       11.9075286632       19.6925371078  MEMB      6               0.0000000000
       792        12  POPC      O11            -3.4372524798       13.9610304578       18.5712980486  MEMB      6               0.0000000000
       793        12  POPC      C1             -4.7344019766       14.4596154766       18.2127563625  MEMB      6               0.0000000000
       794        12  POPC      HA             -4.8655164337       15.4549368728       18.6916240914  MEMB      6               0.0000000000
       795        12  POPC      HB             -5.5567211091       13.8205324278       18.6031536059  MEMB      6               0.0000000000
       796        12  POPC      C2             -4.9443699119       14.6772700431       16.6668386243  MEMB      6               0.0000000000
       797        12  POPC      HS             -5.8973782003       15.2434263079       16.5544880750  MEMB      6               0.0000000000
       798        12  POPC      O21            -5.0232569090       13.4674696929       15.8927080684  MEMB      6               0.0000000000
       799        12  POPC      C21            -5.7237644199       12.4207289158       16.2683330304  MEMB      6               0.0000000000
       800        12  POPC      O22            -6.6125339306       12.3722652432       17.0981313191  MEMB      6               0.0000000000
       801        12  POPC      C22            -5.2610596035       11.2040683972       15.4352590577  MEMB      6               0.0000000000
       802        12  POPC      H2R            -5.8639225645       10.3318946331       15.7670893380  MEMB      6               0.0000000000
       803        12  POPC      H2S            -4.1982109579       11.0048152249       15.6717462259  MEMB      6               0.0000000000
       804        12  POPC      C3             -3.8317469458       15.5603015708       16.0069711642  MEMB      6               0.0000000000
       805        12  POPC      HX             -3.5666232175       16.3719921314       16.7200399272  MEMB      6               0.0000000000
       806        12  POPC      HY             -4.2460086680       16.0489142979       15.0945189343  MEMB      6               0.0000000000
       807        12  POPC      O31            -2.6493205946       14.7828293745       15.7169912117  MEMB      6               0.0000000000
       808        12  POPC      C31            -2.6417726056       14.1716205825       14.5431970498  MEMB      6               0.0000000000
       809        12  POPC      O32            -3.1689003242       14.5730520946       13.5216992748  MEMB      6               0.0000000000
       810        12  POPC      C32            -1.9474003149       12.8148774553       14.7147953301  MEMB      6               0.0000000000
       811        12  POPC      H2X            -2.5999382313       12.0408686318       14.2762053162  MEMB      6               0.0000000000
       812        12  POPC      H2Y            -1.8859823861       12.6331140142       15.8099459741  MEMB      6               0.0000000000
       813        12  POPC      C23            -5.4269355799       11.3810426111       13.8983069743  MEMB      6               0.0000000000
       814        12  POPC      H3R            -4.8845205492       12.2857358191       13.5427472236  MEMB      6               0.0000000000
       815        12  POPC      H3S            -6.5107639216       11.5509448933       13.6918242017  MEMB      6               0.0000000000
       816        12  POPC      C24            -4.9709552215       10.1633230775       13.0613259195  MEMB      6               0.0000000000
       817        12  POPC      H4R            -5.6175589131       10.1344679888       12.1520677810  MEMB      6               0.0000000000
       818        12  POPC      H4S            -5.1510792527        9.2226529709       13.6215619044  MEMB      6               0.0000000000
       819        12  POPC      C25            -3.5100850854       10.2114541332       12.5630363755  MEMB      6               0.0000000000
       820        12  POPC      H5R            -2.8121500459       10.0141194300       13.4033506923  MEMB      6               0.0000000000
       821        12  POPC      H5S            -3.3141571663       11.2383228413       12.1796329069  MEMB      6               0.0000000000
       822        12  POPC      C26            -3.2310966374        9.2317360612       11.4052082914  MEMB      6               0.0000000000
       823        12  POPC      H6R            -3.9937740464        9.4382034539       10.6187328450  MEMB      6               0.0000000000
       824        12  POPC      H6S            -3.3771115618        8.1872617356       11.7493370436  MEMB      6               0.0000000000
       825        12  POPC      C27            -1.8379828416        9.3817097476       10.7517547678  MEMB      6               0.0000000000
       826        12  POPC      H7R            -1.0581413209        8.9227213073       11.3952844984  MEMB      6               0.0000000000
       827        12  POPC      H7S            -1.6197214535       10.4674227301       10.6932520223  MEMB      6               0.0000000000
       828        12  POPC      C28            -1.7617675540        8.8070196149        9.3145592836  MEMB      6               0.0000000000
       829        12  POPC      H8R            -2.6499774090        9.1999151279        8.7706456569  MEMB      6               0.0000000000
       830        12  POPC      H8S            -1.8673182958        7.7009937452        9.3733887284  MEMB      6               0.0000000000
       831        12  POPC      C29            -0.5277696137        9.1969497508        8.5325641232  MEMB      6               0.0000000000
       832        12  POPC      H91            -0.0647816643       10.1442106914        8.8500440189  MEMB      6               0.0000000000
       833        12  POPC      C210            0.0471048892        8.5071220410        7.5239248094  MEMB      6               0.0000000000
       834        12  POPC      H101            0.9583992447        8.9160434139        7.0607198984  MEMB      6               0.0000000000
       835        12  POPC      C211           -0.4001381748        7.1873383633        6.9380153191  MEMB      6               0.0000000000
       836        12  POPC      H11R           -1.3099051080        6.7940817408        7.4417183829  MEMB      6               0.0000000000
       837        12  POPC      H11S            0.3968497170        6.4297338481        7.1288999142  MEMB      6               0.0000000000
       838        12  POPC      C212           -0.6713139971        7.1775939112        5.4138789769  MEMB      6               0.0000000000
       839        12  POPC      H12R           -0.7261142548        6.1096730322        5.0962614303  MEMB      6               0.0000000000
       840        12  POPC      H12S            0.1735212072        7.6396843032        4.8589659501  MEMB      6               0.0000000000
       841        12  POPC      C213           -1.9970541412        7.8485836687        5.0185087854  MEMB      6               0.0000000000
       842        12  POPC      H13R           -1.9641012261        8.9239056274        5.3014684901  MEMB      6               0.0000000000
       843        12  POPC      H13S           -2.8175821450        7.3727967723        5.6015743527  MEMB      6               0.0000000000
       844        12  POPC      C214           -2.3346783255        7.7252148724        3.5228421393  MEMB      6               0.0000000000
       845        12  POPC      H14R           -2.3559573001        6.6502859174        3.2333240014  MEMB      6               0.0000000000
       846        12  POPC      H14S           -1.5352215858        8.2180170341        2.9276067021  MEMB      6               0.0000000000
       847        12  POPC      C215           -3.6970612162        8.3656929110        3.1970179078  MEMB      6               0.0000000000
       848        12  POPC      H15R           -3.6900926365        9.4306951067        3.5114862574  MEMB      6               0.0000000000
       849        12  POPC      H15S           -4.4631211827        7.8357739052        3.8096453933  MEMB      6               0.0000000000
       850        12  POPC      C216           -4.1233722190        8.2877369585        1.7194597276  MEMB      6               0.0000000000
       851        12  POPC      H16R           -5.2329816693        8.1826516773        1.6885144620  MEMB      6               0.0000000000
       852        12  POPC      H16S           -3.7053437564        7.3691396138        1.2614600467  MEMB      6               0.0000000000
       853        12  POPC      C217           -3.7787955486        9.5312761795        0.8739264615  MEMB      6               0.0000000000
       854        12  POPC      H17R           -4.3620675976       10.3921947397        1.2712689753  MEMB      6               0.0000000000
       855        12  POPC      H17S           -4.1494188817        9.3597035579       -0.1622942714  MEMB      6               0.0000000000
       856        12  POPC      C218           -2.2939363282        9.9158246470        0.8086125187  MEMB      6               0.0000000000
       857        12  POPC      H18R           -2.1480626509       10.7891521487        0.1397513426  MEMB      6               0.0000000000
       858        12  POPC      H18S           -1.6835494872        9.0858550456        0.4034866596  MEMB      6               0.0000000000
       859        12  POPC      H18T           -1.9043178919       10.1792061029        1.8146133708  MEMB      6               0.0000000000
       860        12  POPC      C33            -0.5243627724       12.7465378419       14.1202348819  MEMB      6               0.0000000000
       861        12  POPC      H3X             0.0612664956       12.0222144510       14.7286613554  MEMB      6               0.0000000000
       862        12  POPC      H3Y            -0.0385871040       13.7342378519       14.2185766175  MEMB      6               0.0000000000
       863        12  POPC      C34            -0.4286498495       12.3266740152       12.6500104708  MEMB      6               0.0000000000
       864        12  POPC      H4X            -0.8785008202       11.3210919498       12.5185130714  MEMB      6               0.0000000000
       865        12  POPC      H4Y             0.6448554294       12.2421997205       12.3680720811  MEMB      6               0.0000000000
       866        12  POPC      C35            -1.0907414486       13.3192421242       11.6878827200  MEMB      6               0.0000000000
       867        12  POPC      H5X            -0.9047018610       14.3678831996       12.0141123146  MEMB      6               0.0000000000
       868        12  POPC      H5Y            -2.1907272659       13.1574818279       11.7296016267  MEMB      6               0.0000000000
       869        12  POPC      C36            -0.6018288072       13.1677520919       10.2467121461  MEMB      6               0.0000000000
       870        12  POPC      H6X            -0.3769361817       12.0984602618       10.0410160482  MEMB      6               0.0000000000
       871        12  POPC      H6Y             0.3479415235       13.7314145790       10.1118485558  MEMB      6               0.0000000000
       872        12  POPC      C37            -1.6258245965       13.6468520116        9.2125476677  MEMB      6               0.0000000000
       873        12  POPC      H7X            -1.1580524097       13.5119568020        8.2131841619  MEMB      6               0.0000000000
       874        12  POPC      H7Y            -1.8313723023       14.7322377634        9.3353487600  MEMB      6               0.0000000000
       875        12  POPC      C38            -2.9453463849       12.8573546689        9.2433359709  MEMB      6               0.0000000000
       876        12  POPC      H8X            -3.6686344987       13.3515645359        9.9276967136  MEMB      6               0.0000000000
       877        12  POPC      H8Y            -2.7583186720       11.8361530017        9.6341525555  MEMB      6               0.0000000000
       878        12  POPC      C39            -3.5401181601       12.7064033515        7.8452163607  MEMB      6               0.0000000000
       879        12  POPC      H9X            -2.7510317863       12.2629529700        7.1971569992  MEMB      6               0.0000000000
       880        12  POPC      H9Y            -3.7800775283       13.7211166962        7.4546142255  MEMB      6               0.0000000000
       881        12  POPC      C310           -4.7992189818       11.8325882138        7.7735081539  MEMB      6               0.0000000000
       882        12  POPC      H10X           -5.4877571465       12.1285461802        8.5979237371  MEMB      6               0.0000000000
       883        12  POPC      H10Y           -4.5280299041       10.7638404106        7.9206128418  MEMB      6               0.0000000000
       884        12  POPC      C311           -5.5263613286       12.0200680829        6.4321048297  MEMB      6               0.0000000000
       885        12  POPC      H11X           -5.7574855838       13.1078532777        6.3576025254  MEMB      6               0.0000000000
       886        12  POPC      H11Y           -6.4935578617       11.4726361066        6.4258141123  MEMB      6               0.0000000000
       887        12  POPC      C312           -4.6891395997       11.6176299815        5.2058033568  MEMB      6               0.0000000000
       888        12  POPC      H12X           -4.8060872804       10.5327507790        5.0014585121  MEMB      6               0.0000000000
       889        12  POPC      H12Y           -3.6121685663       11.7837731687        5.4193478028  MEMB      6               0.0000000000
       890        12  POPC      C313           -5.0025195328       12.4571089084        3.9587043027  MEMB      6               0.0000000000
       891        12  POPC      H13X           -5.3421152355       13.4684608393        4.2768737021  MEMB      6               0.0000000000
       892        12  POPC      H13Y           -5.8324991489       11.9932864738        3.3825964454  MEMB      6               0.0000000000
       893        12  POPC      C314           -3.7711277244       12.6696325175        3.0649744719  MEMB      6               0.0000000000
       894        12  POPC      H14X           -3.4113797490       11.6906378861        2.6928057076  MEMB      6               0.0000000000
       895        12  POPC      H14Y           -2.9518268946       13.1119262163        3.6741055896  MEMB      6               0.0000000000
       896        12  POPC      C315           -4.0643365310       13.6090547889        1.8905941221  MEMB      6               0.0000000000
       897        12  POPC      H15X           -4.3061561707       14.6130476729        2.3067582053  MEMB      6               0.0000000000
       898        12  POPC      H15Y           -4.9605160546       13.2323536746        1.3483614252  MEMB      6               0.0000000000
       899        12  POPC      C316           -2.9143159794       13.7643197114        0.8989308025  MEMB      6               0.0000000000
       900        12  POPC      H16X           -2.7604014201       12.8269545966        0.3268533700  MEMB      6               0.0000000000
       901        12  POPC      H16Y           -1.9767802068       14.0063780631        1.4396582622  MEMB      6               0.0000000000
       902        12  POPC      H16Z           -3.1262006319       14.5806312060        0.1753851364  MEMB      6               0.0000000000
       903        13  POPS      N              11.0926059935        4.5423369887       20.7562843318  MEMB      7               0.0000000000
       904        13  POPS      HN1            10.4374208514        3.8388773083       21.1691530346  MEMB      7               0.0000000000
       905        13  POPS      HN2            12.0714932429        4.3464486535       21.0732560018  MEMB      7               0.0000000000
       906        13  POPS      HN3            10.8143596123        5.5215172863       20.9322042336  MEMB      7               0.0000000000
       907        13  POPS      C12            11.1876180540        4.2894256890       19.2902653511  MEMB      7               0.0000000000
       908        13  POPS      H12A           10.2270877896        4.4738428655       18.8337282609  MEMB      7               0.0000000000
       909        13  POPS      C13            11.5534462395        2.8270833803       19.0236260275  MEMB      7               0.0000000000
       910        13  POPS      O13A           12.0460010030        2.1488340274       19.9722297224  MEMB      7               0.0000000000
       911        13  POPS      O13B           11.3267419413        2.3703005775       17.8736370622  MEMB      7               0.0000000000
       912        13  POPS      C11            12.3065683736        5.2016554845       18.6871606804  MEMB      7               0.0000000000
       913        13  POPS      H11A           11.8272069221        6.1919886861       18.5289240505  MEMB      7               0.0000000000
       914        13  POPS      H11B           12.5975344729        4.8084933201       17.6863565364  MEMB      7               0.0000000000
       915        13  POPS      P              14.4470921140        6.5382643388       19.5231983480  MEMB      7               0.0000000000
       916        13  POPS      O13            15.7019851420        6.2979572422       18.7738548486  MEMB      7               0.0000000000
       917        13  POPS      O14            14.5489887406        7.0359202025       20.9215808200  MEMB      7               0.0000000000
       918        13  POPS      O12            13.4741284872        5.2848986087       19.5236328906  MEMB      7               0.0000000000
       919        13  POPS      O11            13.5682236983        7.5994020112       18.7139173829  MEMB      7               0.0000000000
       920        13  POPS      C1             13.9993223570        8.0887838300       17.4434880985  MEMB      7               0.0000000000
       921        13  POPS      HA             14.8259729598        7.4837440739       16.9971357558  MEMB      7               0.0000000000
       922        13  POPS      HB             14.3648910827        9.1153669519       17.6076273119  MEMB      7               0.0000000000
       923        13  POPS      C2             12.9198491182        8.2211892803       16.3204417075  MEMB      7               0.0000000000
       924        13  POPS      HS             12.1774034296        8.9821749476       16.6478191119  MEMB      7               0.0000000000
       925        13  POPS      O21            12.2579819626        6.9646241375       16.0564236925  MEMB      7               0.0000000000
       926        13  POPS      C21            11.3758763056        7.0762294923       15.0703958184  MEMB      7               0.0000000000
       927        13  POPS      O22            10.8569140249        8.1141299352       14.6999640846  MEMB      7               0.0000000000
       928        13  POPS      C22            11.1182220304        5.7211959158       14.4319464370  MEMB      7               0.0000000000
       929        13  POPS      H2R            10.3170775686        5.2077606396       14.9999406670  MEMB      7               0.0000000000
       930        13  POPS      H2S            12.0461049209        5.1246414702       14.5119606094  MEMB      7               0.0000000000
       931        13  POPS      C3             13.6574148604        8.7373904866       15.0491809752  MEMB      7               0.0000000000
       932        13  POPS      HX             14.1703567622        9.6901328794       15.3125973114  MEMB      7               0.0000000000
       933        13  POPS      HY             12.9491248620        8.9773323243       14.2273191048  MEMB      7               0.0000000000
       934        13  POPS      O31            14.6262040173        7.7427756596       14.6519062909  MEMB      7               0.0000000000
       935        13  POPS      C31            15.2116596703        8.0318519529       13.5096833884  MEMB      7               0.0000000000
       936        13  POPS      O32            14.9515867951        8.9920702680       12.8071664608  MEMB      7               0.0000000000
       937        13  POPS      C32            16.3258720083        7.0308161071       13.1876853011  MEMB      7               0.0000000000
       938        13  POPS      H2X            16.9748398993        6.9138191398       14.0809180254  MEMB      7               0.0000000000
       939        13  POPS      H2Y            16.9197499585        7.4994523457       12.3722370861  MEMB      7               0.0000000000
       940        13  POPS      C23            10.7294444376        5.9154708944       12.9509619425  MEMB      7               0.0000000000
       941        13  POPS      H3R            11.5011495271        6.5415107008       12.4430368886  MEMB      7               0.0000000000
       942        13  POPS      H3S             9.7659179942        6.4687024362       12.8821785883  MEMB      7               0.0000000000
       943        13  POPS      C24            10.6072890780        4.5932414770       12.1903069503  MEMB      7               0.0000000000
       944        13  POPS      H4R            10.0287812570        3.8771044727       12.8113101246  MEMB      7               0.0000000000
       945        13  POPS      H4S            11.6155612607        4.1569619357       12.0565191847  MEMB      7               0.0000000000
       946        13  POPS      C25             9.9615512003        4.7369008484       10.8028529055  MEMB      7               0.0000000000
       947        13  POPS      H5R             8.8916837343        5.0137600764       10.9308830110  MEMB      7               0.0000000000
       948        13  POPS      H5S             9.9974229984        3.7522474612       10.2824872265  MEMB      7               0.0000000000
       949        13  POPS      C26            10.6092453992        5.7996881642        9.9009334644  MEMB      7               0.0000000000
       950        13  POPS      H6R            10.4154516745        6.7995142916       10.3495936337  MEMB      7               0.0000000000
       951        13  POPS      H6S            10.1041584623        5.7882772611        8.9088034347  MEMB      7               0.0000000000
       952        13  POPS      C27            12.1213825686        5.6164552758        9.6871677021  MEMB      7               0.0000000000
       953        13  POPS      H7R            12.2968704313        4.6513136677        9.1617680456  MEMB      7               0.0000000000
       954        13  POPS      H7S            12.6491945997        5.5589633831       10.6643225511  MEMB      7               0.0000000000
       955        13  POPS      C28            12.7474199450        6.7526454379        8.8572115064  MEMB      7               0.0000000000
       956        13  POPS      H8R            12.2287841435        6.7682076970        7.8722879584  MEMB      7               0.0000000000
       957        13  POPS      H8S            13.8127419647        6.5004774446        8.6563755165  MEMB      7               0.0000000000
       958        13  POPS      C29            12.6572378708        8.0779096073        9.5794597246  MEMB      7               0.0000000000
       959        13  POPS      H91            13.2255456294        8.1284846925       10.5225169436  MEMB      7               0.0000000000
       960        13  POPS      C210           11.9760501157        9.1711041208        9.1807960226  MEMB      7               0.0000000000
       961        13  POPS      H101           11.9905845318       10.0608685688        9.8298192101  MEMB      7               0.0000000000
       962        13  POPS      C211           11.1571297671        9.3014147550        7.9185093296  MEMB      7               0.0000000000
       963        13  POPS      H11R           10.5070036856       10.2035501873        7.9585072813  MEMB      7               0.0000000000
       964        13  POPS      H11S           10.4866974614        8.4207692527        7.7932549768  MEMB      7               0.0000000000
       965        13  POPS      C212           12.0861590620        9.3966674906        6.6943520432  MEMB      7               0.0000000000
       966        13  POPS      H12R           12.7333876243        8.4916017902        6.6844496669  MEMB      7               0.0000000000
       967        13  POPS      H12S           12.7635454011       10.2747201095        6.7764290584  MEMB      7               0.0000000000
       968        13  POPS      C213           11.3787724225        9.4280749682        5.3323678150  MEMB      7               0.0000000000
       969        13  POPS      H13R           11.1579101981       10.4795952656        5.0537845055  MEMB      7               0.0000000000
       970        13  POPS      H13S           10.4105740223        8.8870241528        5.4021201586  MEMB      7               0.0000000000
       971        13  POPS      C214           12.2494174965        8.7473869798        4.2602815437  MEMB      7               0.0000000000
       972        13  POPS      H14R           12.2228427500        7.6478840151        4.4273314082  MEMB      7               0.0000000000
       973        13  POPS      H14S           13.3052648791        9.0700905541        4.4159922085  MEMB      7               0.0000000000
       974        13  POPS      C215           11.8834395159        9.0557447051        2.8005910232  MEMB      7               0.0000000000
       975        13  POPS      H15R           12.4605803216        8.3823979451        2.1274028666  MEMB      7               0.0000000000
       976        13  POPS      H15S           12.2196225384       10.0988324187        2.5931388969  MEMB      7               0.0000000000
       977        13  POPS      C216           10.3924640453        8.9785095955        2.4316472426  MEMB      7               0.0000000000
       978        13  POPS      H16R           10.3088185275        9.4430335654        1.4226604023  MEMB      7               0.0000000000
       979        13  POPS      H16S            9.7938195175        9.6005907182        3.1228773281  MEMB      7               0.0000000000
       980        13  POPS      C217            9.7809235785        7.5722192644        2.3217078191  MEMB      7               0.0000000000
       981        13  POPS      H17R           10.4759587772        6.9162543742        1.7535660224  MEMB      7               0.0000000000
       982        13  POPS      H17S            8.8503266408        7.6655140640        1.7109442175  MEMB      7               0.0000000000
       983        13  POPS      C218            9.3846833616        6.9156074454        3.6492210795  MEMB      7               0.0000000000
       984        13  POPS      H18R           10.2727993620        6.7306955289        4.2868921211  MEMB      7               0.0000000000
       985        13  POPS      H18S            8.8851226676        5.9412602145        3.4587453986  MEMB      7               0.0000000000
       986        13  POPS      H18T            8.6783441850        7.5682223520        4.2076270613  MEMB      7               0.0000000000
       987        13  POPS      C33            15.8008087731        5.6599203264       12.7039946182  MEMB      7               0.0000000000
       988        13  POPS      H3X            16.4011470201        5.3298989567       11.8251260381  MEMB      7               0.0000000000
       989        13  POPS      H3Y            14.7473580839        5.7524538011       12.3593966675  MEMB      7               0.0000000000
       990        13  POPS      C34            15.9250838138        4.5756940701       13.7830721304  MEMB      7               0.0000000000
       991        13  POPS      H4X            15.3893999233        4.9023185260       14.7052771594  MEMB      7               0.0000000000
       992        13  POPS      H4Y            16.9995471976        4.4675285771       14.0592172116  MEMB      7               0.0000000000
       993        13  POPS      C35            15.3833123985        3.2007038168       13.3548071084  MEMB      7               0.0000000000
       994        13  POPS      H5X            15.5463151394        2.4823542132       14.1935794175  MEMB      7               0.0000000000
       995        13  POPS      H5Y            15.9445812213        2.8263205663       12.4713552527  MEMB      7               0.0000000000
       996        13  POPS      C36            13.8856866570        3.2624557043       13.0463817500  MEMB      7               0.0000000000
       997        13  POPS      H6X            13.7061273321        3.9280872273       12.1761846574  MEMB      7               0.0000000000
       998        13  POPS      H6Y            13.4079289921        3.7212574361       13.9414416727  MEMB      7               0.0000000000
       999        13  POPS      C37            13.2000178098        1.9129324883       12.8154432011  MEMB      7               0.0000000000
      1000        13  POPS      H7X            12.0965610383        2.0595880352       12.8700729754  MEMB      7               0.0000000000
      1001        13  POPS      H7Y            13.4720334072        1.2242652355       13.6464208304  MEMB      7               0.0000000000
      1002        13  POPS      C38            13.5136651766        1.2302446202       11.4777816453  MEMB      7               0.0000000000
      1003        13  POPS      H8X            12.8826361653        0.3144279502       11.4558809796  MEMB      7               0.0000000000
      1004        13  POPS      H8Y            14.5811640732        0.9164888369       11.4405182862  MEMB      7               0.0000000000
      1005        13  POPS      C39            13.1668991244        2.0303680635       10.2146349711  MEMB      7               0.0000000000
      1006        13  POPS      H9X            13.9739775368        2.7664764597       10.0081433723  MEMB      7               0.0000000000
      1007        13  POPS      H9Y            12.2202840182        2.5907970515       10.3782831717  MEMB      7               0.0000000000
      1008        13  POPS      C310           12.9725024412        1.0857887135        9.0196658299  MEMB      7               0.0000000000
      1009        13  POPS      H10X           12.0622150958        0.4731338809        9.2143120854  MEMB      7               0.0000000000
      1010        13  POPS      H10Y           13.8411488650        0.3915370904        8.9660822219  MEMB      7               0.0000000000
      1011        13  POPS      C311           12.8143125625        1.7780210018        7.6610183072  MEMB      7               0.0000000000
      1012        13  POPS      H11X           12.1420142901        2.6582253417        7.7441306258  MEMB      7               0.0000000000
      1013        13  POPS      H11Y           12.3330720112        1.0475390733        6.9688541056  MEMB      7               0.0000000000
      1014        13  POPS      C312           14.1574993093        2.1824217879        7.0358806005  MEMB      7               0.0000000000
      1015        13  POPS      H12X           14.8780017059        1.3460524690        7.1884970520  MEMB      7               0.0000000000
      1016        13  POPS      H12Y           14.5709360569        3.0759672108        7.5517489258  MEMB      7               0.0000000000
      1017        13  POPS      C313           14.0531414082        2.4315216730        5.5252360409  MEMB      7               0.0000000000
      1018        13  POPS      H13X           13.4770433879        3.3638309098        5.3334739699  MEMB      7               0.0000000000
      1019        13  POPS      H13Y           13.4952871164        1.5860957060        5.0610093468  MEMB      7               0.0000000000
      1020        13  POPS      C314           15.4279289810        2.5141241394        4.8503290524  MEMB      7               0.0000000000
      1021        13  POPS      H14X           16.0213591123        1.6069488722        5.1024503039  MEMB      7               0.0000000000
      1022        13  POPS      H14Y           15.9777171240        3.3952139719        5.2490787885  MEMB      7               0.0000000000
      1023        13  POPS      C315           15.3203837154        2.6252157685        3.3260377343  MEMB      7               0.0000000000
      1024        13  POPS      H15X           14.7116849866        3.5241092025        3.0925332826  MEMB      7               0.0000000000
      1025        13  POPS      H15Y           14.7748753030        1.7395589101        2.9292463722  MEMB      7               0.0000000000
      1026        13  POPS      C316           16.6738631856        2.7454850067        2.6282260450  MEMB      7               0.0000000000
      1027        13  POPS      H16X           17.2394653712        3.6071766913        3.0443559006  MEMB      7               0.0000000000
      1028        13  POPS      H16Y           16.5421181543        2.9084504444        1.5367215056  MEMB      7               0.0000000000
      1029        13  POPS      H16Z           17.2764590350        1.8237660048        2.7793590515  MEMB      7               0.0000000000
      1030        14  POPC      N             -15.4459661679       -0.1255040109       19.6648782014  MEMB      8               0.0000000000
      1031        14  POPC      C12           -13.9603985978       -0.1280961397       20.0234260352  MEMB      8               0.0000000000
      1032        14  POPC      H12A          -13.8657826854       -0.0589159217       21.0992636357  MEMB      8               0.0000000000
      1033        14  POPC      H12B          -13.4885707485        0.7383443706       19.5785563118  MEMB      8               0.0000000000
      1034        14  POPC      C13           -15.6356783842       -0.3847200491       18.2008861719  MEMB      8               0.0000000000
      1035        14  POPC      H13A          -16.6682943367       -0.2524329452       17.8987097037  MEMB      8               0.0000000000
      1036        14  POPC      H13B          -15.0254151101        0.2655197296       17.5957185962  MEMB      8               0.0000000000
      1037        14  POPC      H13C          -15.3349485519       -1.4131867520       17.9666897472  MEMB      8               0.0000000000
      1038        14  POPC      C14           -16.1210958821       -1.2306000309       20.4259654638  MEMB      8               0.0000000000
      1039        14  POPC      H14A          -16.0626502908       -1.1227926692       21.5036995282  MEMB      8               0.0000000000
      1040        14  POPC      H14B          -17.1571546411       -1.3206515614       20.1347851852  MEMB      8               0.0000000000
      1041        14  POPC      H14C          -15.6088718777       -2.1615304598       20.1716807649  MEMB      8               0.0000000000
      1042        14  POPC      C15           -16.1465949204        1.1416047757       20.0000822451  MEMB      8               0.0000000000
      1043        14  POPC      H15A          -15.6754785795        2.0053217311       19.5639589251  MEMB      8               0.0000000000
      1044        14  POPC      H15B          -16.2707940625        1.2730949891       21.0708980341  MEMB      8               0.0000000000
      1045        14  POPC      H15C          -17.1711387245        1.1016377531       19.6096404525  MEMB      8               0.0000000000
      1046        14  POPC      C11           -13.0781703980       -1.3441304746       19.6019574555  MEMB      8               0.0000000000
      1047        14  POPC      H11A          -12.0321130925       -1.1277110599       19.9135908917  MEMB      8               0.0000000000
      1048        14  POPC      H11B          -13.0408946092       -1.3806813358       18.4825427077  MEMB      8               0.0000000000
      1049        14  POPC      P             -13.7111994782       -3.8247314328       19.2582017885  MEMB      8               0.0000000000
      1050        14  POPC      O13           -14.1913092519       -4.9969603706       20.0340775216  MEMB      8               0.0000000000
      1051        14  POPC      O14           -12.5707990858       -4.0189524412       18.3389133527  MEMB      8               0.0000000000
      1052        14  POPC      O12           -13.4756576005       -2.5801443961       20.2264490982  MEMB      8               0.0000000000
      1053        14  POPC      O11           -14.9267048352       -3.2327270896       18.4173623468  MEMB      8               0.0000000000
      1054        14  POPC      C1            -16.0367409098       -4.0229720745       18.0039025773  MEMB      8               0.0000000000
      1055        14  POPC      HA            -16.9734713079       -3.5401744073       18.3495105302  MEMB      8               0.0000000000
      1056        14  POPC      HB            -16.0199719639       -5.0492955578       18.4473388975  MEMB      8               0.0000000000
      1057        14  POPC      C2            -16.1016621422       -4.1918545567       16.4617791792  MEMB      8               0.0000000000
      1058        14  POPC      HS            -16.8925241637       -4.9569452299       16.2701362155  MEMB      8               0.0000000000
      1059        14  POPC      O21           -14.8163209198       -4.6500982553       16.0024666106  MEMB      8               0.0000000000
      1060        14  POPC      C21           -14.8495756026       -4.9832657240       14.7337221809  MEMB      8               0.0000000000
      1061        14  POPC      O22           -15.8433100577       -5.3584577390       14.1379220121  MEMB      8               0.0000000000
      1062        14  POPC      C22           -13.4823696379       -4.7562346287       14.1050558899  MEMB      8               0.0000000000
      1063        14  POPC      H2R           -12.7225104325       -5.1885593105       14.7904798369  MEMB      8               0.0000000000
      1064        14  POPC      H2S           -13.3059692717       -3.6694465891       14.0254359954  MEMB      8               0.0000000000
      1065        14  POPC      C3            -16.5206137556       -2.8780724100       15.6890655621  MEMB      8               0.0000000000
      1066        14  POPC      HX            -17.2898995216       -2.3570822168       16.2973761336  MEMB      8               0.0000000000
      1067        14  POPC      HY            -17.0229860137       -3.2140354753       14.7491472115  MEMB      8               0.0000000000
      1068        14  POPC      O31           -15.4079606561       -1.9811563936       15.4307128475  MEMB      8               0.0000000000
      1069        14  POPC      C31           -15.3946563611       -1.3436961198       14.2524532137  MEMB      8               0.0000000000
      1070        14  POPC      O32           -16.2551223418       -1.4246400448       13.3994841127  MEMB      8               0.0000000000
      1071        14  POPC      C32           -14.1579901207       -0.4320080151       14.1952308067  MEMB      8               0.0000000000
      1072        14  POPC      H2X           -13.6411443643       -0.4945196289       15.1781988317  MEMB      8               0.0000000000
      1073        14  POPC      H2Y           -14.5179386854        0.6063414139       14.0662943713  MEMB      8               0.0000000000
      1074        14  POPC      C23           -13.3921736744       -5.4271160214       12.7245057190  MEMB      8               0.0000000000
      1075        14  POPC      H3R           -13.9421286036       -6.3837962959       12.7475343372  MEMB      8               0.0000000000
      1076        14  POPC      H3S           -12.3399580586       -5.6877872269       12.5214180327  MEMB      8               0.0000000000
      1077        14  POPC      C24           -13.9209968297       -4.6346265235       11.5191723206  MEMB      8               0.0000000000
      1078        14  POPC      H4R           -13.1791314218       -3.8621417888       11.2234562755  MEMB      8               0.0000000000
      1079        14  POPC      H4S           -14.8696779843       -4.1162554692       11.7819258851  MEMB      8               0.0000000000
      1080        14  POPC      C25           -14.1886978495       -5.6108852548       10.3585192043  MEMB      8               0.0000000000
      1081        14  POPC      H5R           -15.2759441524       -5.8326709957       10.2863390773  MEMB      8               0.0000000000
      1082        14  POPC      H5S           -13.6834487322       -6.5672054847       10.6076613709  MEMB      8               0.0000000000
      1083        14  POPC      C26           -13.6139176223       -5.2289878744        8.9939597102  MEMB      8               0.0000000000
      1084        14  POPC      H6R           -13.7930517717       -6.0834639598        8.2988145451  MEMB      8               0.0000000000
      1085        14  POPC      H6S           -12.5117083014       -5.1026799057        9.0775488506  MEMB      8               0.0000000000
      1086        14  POPC      C27           -14.2362004859       -3.9736401393        8.3838412876  MEMB      8               0.0000000000
      1087        14  POPC      H7R           -13.8346141617       -3.0760528375        8.9056985443  MEMB      8               0.0000000000
      1088        14  POPC      H7S           -15.3359584514       -3.9903448609        8.5639966059  MEMB      8               0.0000000000
      1089        14  POPC      C28           -13.9830849260       -3.8621567867        6.8682328583  MEMB      8               0.0000000000
      1090        14  POPC      H8R           -14.3229244656       -2.8494718550        6.5602694660  MEMB      8               0.0000000000
      1091        14  POPC      H8S           -14.6310909916       -4.6031874138        6.3506218616  MEMB      8               0.0000000000
      1092        14  POPC      C29           -12.5325339480       -4.0326824900        6.4967660981  MEMB      8               0.0000000000
      1093        14  POPC      H91           -11.8606078530       -3.3491841727        7.0368601959  MEMB      8               0.0000000000
      1094        14  POPC      C210          -12.0003411177       -4.8958078701        5.6049340442  MEMB      8               0.0000000000
      1095        14  POPC      H101          -10.9111462778       -4.8860508721        5.4503595557  MEMB      8               0.0000000000
      1096        14  POPC      C211          -12.7230261618       -5.9087892222        4.7499117235  MEMB      8               0.0000000000
      1097        14  POPC      H11R          -13.7157620112       -6.1642105519        5.1815964603  MEMB      8               0.0000000000
      1098        14  POPC      H11S          -12.1460475636       -6.8586175618        4.6937864027  MEMB      8               0.0000000000
      1099        14  POPC      C212          -12.9412412760       -5.3623266638        3.3254333853  MEMB      8               0.0000000000
      1100        14  POPC      H12R          -13.3197504059       -4.3190970679        3.4059323503  MEMB      8               0.0000000000
      1101        14  POPC      H12S          -13.7277374358       -5.9618953963        2.8139430558  MEMB      8               0.0000000000
      1102        14  POPC      C213          -11.6883029336       -5.3573083235        2.4350438008  MEMB      8               0.0000000000
      1103        14  POPC      H13R          -11.4774023015       -6.3916303650        2.0862779035  MEMB      8               0.0000000000
      1104        14  POPC      H13S          -10.8063226770       -5.0179087301        3.0225673484  MEMB      8               0.0000000000
      1105        14  POPC      C214          -11.8465117401       -4.4149594040        1.2311577012  MEMB      8               0.0000000000
      1106        14  POPC      H14R          -11.8741158863       -3.3670930369        1.6117748903  MEMB      8               0.0000000000
      1107        14  POPC      H14S          -12.8170887340       -4.6111789868        0.7232124396  MEMB      8               0.0000000000
      1108        14  POPC      C215          -10.7106974517       -4.5478445456        0.2064563935  MEMB      8               0.0000000000
      1109        14  POPC      H15R          -10.8849340853       -5.4458330270       -0.4262205221  MEMB      8               0.0000000000
      1110        14  POPC      H15S           -9.7612049733       -4.7205975730        0.7547838005  MEMB      8               0.0000000000
      1111        14  POPC      C216          -10.5342254612       -3.2970687612       -0.6713096443  MEMB      8               0.0000000000
      1112        14  POPC      H16R           -9.6813442529       -3.4610611830       -1.3681852613  MEMB      8               0.0000000000
      1113        14  POPC      H16S          -10.2646676313       -2.4373750714       -0.0162549665  MEMB      8               0.0000000000
      1114        14  POPC      C217          -11.7775195916       -2.9269075762       -1.4881195644  MEMB      8               0.0000000000
      1115        14  POPC      H17R          -11.5798285648       -1.9751171950       -2.0314492606  MEMB      8               0.0000000000
      1116        14  POPC      H17S          -12.6265359028       -2.7391184503       -0.7937689869  MEMB      8               0.0000000000
      1117        14  POPC      C218          -12.1816106210       -3.9959604416       -2.5024267089  MEMB      8               0.0000000000
      1118        14  POPC      H18R          -13.0120714457       -3.6340959657       -3.1444325803  MEMB      8               0.0000000000
      1119        14  POPC      H18S          -12.5124436938       -4.9249350274       -1.9904688912  MEMB      8               0.0000000000
      1120        14  POPC      H18T          -11.3211545247       -4.2462872897       -3.1599380898  MEMB      8               0.0000000000
      1121        14  POPC      C33           -13.1264097139       -0.7911538771       13.0933436381  MEMB      8               0.0000000000
      1122        14  POPC      H3X           -12.7668594783       -1.8332074590       13.2264878871  MEMB      8               0.0000000000
      1123        14  POPC      H3Y           -12.2414478325       -0.1237992743       13.2351980118  MEMB      8               0.0000000000
      1124        14  POPC      C34           -13.6149341400       -0.5998625432       11.6471970856  MEMB      8               0.0000000000
      1125        14  POPC      H4X           -14.4641099961       -1.2897257232       11.4396506796  MEMB      8               0.0000000000
      1126        14  POPC      H4Y           -12.7863801782       -0.8707976399       10.9528000086  MEMB      8               0.0000000000
      1127        14  POPC      C35           -14.0436716872        0.8431806066       11.3498322827  MEMB      8               0.0000000000
      1128        14  POPC      H5X           -13.2332136687        1.5292926403       11.6856945365  MEMB      8               0.0000000000
      1129        14  POPC      H5Y           -14.9571892523        1.0783717043       11.9400171952  MEMB      8               0.0000000000
      1130        14  POPC      C36           -14.3393229783        1.1277478656        9.8698262881  MEMB      8               0.0000000000
      1131        14  POPC      H6X           -13.4382522652        0.9219446509        9.2513069000  MEMB      8               0.0000000000
      1132        14  POPC      H6Y           -14.5656281456        2.2159104582        9.7825828002  MEMB      8               0.0000000000
      1133        14  POPC      C37           -15.5401068095        0.3443602079        9.3176687114  MEMB      8               0.0000000000
      1134        14  POPC      H7X           -16.3457512890        0.3377991006       10.0869289559  MEMB      8               0.0000000000
      1135        14  POPC      H7Y           -15.2481060378       -0.7132278862        9.1377263201  MEMB      8               0.0000000000
      1136        14  POPC      C38           -16.0976223115        0.9730519917        8.0308227975  MEMB      8               0.0000000000
      1137        14  POPC      H8X           -15.2985518864        1.0125432180        7.2573098869  MEMB      8               0.0000000000
      1138        14  POPC      H8Y           -16.3984896397        2.0210363170        8.2647962485  MEMB      8               0.0000000000
      1139        14  POPC      C39           -17.3169350249        0.2359739118        7.4563099339  MEMB      8               0.0000000000
      1140        14  POPC      H9X           -17.7842254829        0.8858100480        6.6802024252  MEMB      8               0.0000000000
      1141        14  POPC      H9Y           -18.0701760028        0.0763777164        8.2598791785  MEMB      8               0.0000000000
      1142        14  POPC      C310          -16.9693767044       -1.1081493066        6.7992314026  MEMB      8               0.0000000000
      1143        14  POPC      H10X          -16.6686228124       -1.8372489469        7.5850873121  MEMB      8               0.0000000000
      1144        14  POPC      H10Y          -16.0962117686       -0.9567932361        6.1246520414  MEMB      8               0.0000000000
      1145        14  POPC      C311          -18.1412597325       -1.6733796387        5.9802869650  MEMB      8               0.0000000000
      1146        14  POPC      H11X          -18.3912325970       -0.9555647132        5.1679464049  MEMB      8               0.0000000000
      1147        14  POPC      H11Y          -19.0332637409       -1.7515092078        6.6440315227  MEMB      8               0.0000000000
      1148        14  POPC      C312          -17.8787398854       -3.0587451313        5.3653566097  MEMB      8               0.0000000000
      1149        14  POPC      H12X          -18.7662739398       -3.3657066179        4.7687097685  MEMB      8               0.0000000000
      1150        14  POPC      H12Y          -17.7650608232       -3.7898885570        6.2001081612  MEMB      8               0.0000000000
      1151        14  POPC      C313          -16.6253574893       -3.1643697861        4.4795666468  MEMB      8               0.0000000000
      1152        14  POPC      H13X          -16.5068931617       -4.2312316770        4.1793129385  MEMB      8               0.0000000000
      1153        14  POPC      H13Y          -15.7303053183       -2.8927907747        5.0709697329  MEMB      8               0.0000000000
      1154        14  POPC      C314          -16.6125048784       -2.3014619660        3.2074160695  MEMB      8               0.0000000000
      1155        14  POPC      H14X          -16.7307691175       -1.2273750986        3.4657432313  MEMB      8               0.0000000000
      1156        14  POPC      H14Y          -17.4769988114       -2.5916828389        2.5774240121  MEMB      8               0.0000000000
      1157        14  POPC      C315          -15.2879699570       -2.5000417278        2.4471229214  MEMB      8               0.0000000000
      1158        14  POPC      H15X          -15.0205460990       -3.5785223493        2.5075276339  MEMB      8               0.0000000000
      1159        14  POPC      H15Y          -14.4879359081       -1.9362449817        2.9781000323  MEMB      8               0.0000000000
      1160        14  POPC      C316          -15.2907530448       -2.1271143533        0.9634601593  MEMB      8               0.0000000000
      1161        14  POPC      H16X          -14.2851339117       -1.7745332464        0.6491194505  MEMB      8               0.0000000000
      1162        14  POPC      H16Y          -16.0364629396       -1.3380889431        0.7440452013  MEMB      8               0.0000000000
      1163        14  POPC      H16Z          -15.5474533395       -3.0131854251        0.3449655937  MEMB      8               0.0000000000
      1164        15  POPC      N              -3.5012073705      -12.5735022975       16.9241227703  MEMB      9               0.0000000000
      1165        15  POPC      C12            -4.7662486773      -11.9889562358       17.5459291787  MEMB      9               0.0000000000
      1166        15  POPC      H12A           -5.4105867865      -12.8208355280       17.8096460497  MEMB      9               0.0000000000
      1167        15  POPC      H12B           -5.2793938937      -11.3779104547       16.8126081201  MEMB      9               0.0000000000
      1168        15  POPC      C13            -2.9593627613      -13.5827018653       17.8904224252  MEMB      9               0.0000000000
      1169        15  POPC      H13A           -3.6109892405      -14.4509121558       17.9456479058  MEMB      9               0.0000000000
      1170        15  POPC      H13B           -1.9481667724      -13.8718692920       17.6715193820  MEMB      9               0.0000000000
      1171        15  POPC      H13C           -2.9952858578      -13.1595082013       18.9021667569  MEMB      9               0.0000000000
      1172        15  POPC      C14            -3.7915710317      -13.2599073558       15.6269467612  MEMB      9               0.0000000000
      1173        15  POPC      H14A           -2.8668762967      -13.5776074260       15.1573406727  MEMB      9               0.0000000000
      1174        15  POPC      H14B           -4.4077110030      -14.1427548058       15.7854378837  MEMB      9               0.0000000000
      1175        15  POPC      H14C           -4.3070827405      -12.6093902499       14.9281975964  MEMB      9               0.0000000000
      1176        15  POPC      C15            -2.4918110884      -11.4891032101       16.7283200958  MEMB      9               0.0000000000
      1177        15  POPC      H15A           -2.2659104770      -11.0649892761       17.7066553787  MEMB      9               0.0000000000
      1178        15  POPC      H15B           -2.8867988595      -10.7293959449       16.0700912655  MEMB      9               0.0000000000
      1179        15  POPC      H15C           -1.5780271665      -11.8789256206       16.2889729573  MEMB      9               0.0000000000
      1180        15  POPC      C11            -4.6418952087      -11.1346076570       18.8510353503  MEMB      9               0.0000000000
      1181        15  POPC      H11A           -5.6595195811      -10.7639778190       19.1230707626  MEMB      9               0.0000000000
      1182        15  POPC      H11B           -4.0381622209      -10.2305880841       18.6351676743  MEMB      9               0.0000000000
      1183        15  POPC      P              -4.9202076534      -12.7724451758       20.8814046746  MEMB      9               0.0000000000
      1184        15  POPC      O13            -6.1697070497      -12.0947449735       21.3069634523  MEMB      9               0.0000000000
      1185        15  POPC      O14            -4.0467655526      -13.2897559825       21.9665472003  MEMB      9               0.0000000000
      1186        15  POPC      O12            -4.0448289572      -11.8184839440       19.9553985960  MEMB      9               0.0000000000
      1187        15  POPC      O11            -5.2588269413      -13.9622295081       19.8468218020  MEMB      9               0.0000000000
      1188        15  POPC      C1             -6.5709019347      -14.1351801171       19.3079664574  MEMB      9               0.0000000000
      1189        15  POPC      HA             -6.8599193211      -13.3126427737       18.6224493877  MEMB      9               0.0000000000
      1190        15  POPC      HB             -7.2938406214      -14.1230373990       20.1578581916  MEMB      9               0.0000000000
      1191        15  POPC      C2             -6.7943491007      -15.5168644376       18.5901397333  MEMB      9               0.0000000000
      1192        15  POPC      HS             -6.3648940107      -16.2793097589       19.2809409735  MEMB      9               0.0000000000
      1193        15  POPC      O21            -6.1887912802      -15.6435851460       17.2645859491  MEMB      9               0.0000000000
      1194        15  POPC      C21            -6.1631290972      -16.9081068816       16.7816833266  MEMB      9               0.0000000000
      1195        15  POPC      O22            -6.6333096636      -17.8873665915       17.3298984426  MEMB      9               0.0000000000
      1196        15  POPC      C22            -5.3743378754      -16.9679779790       15.4879256433  MEMB      9               0.0000000000
      1197        15  POPC      H2R            -4.5572270010      -16.2201729446       15.5223971714  MEMB      9               0.0000000000
      1198        15  POPC      H2S            -6.0608029322      -16.7222893252       14.6546004479  MEMB      9               0.0000000000
      1199        15  POPC      C3             -8.3318368847      -15.7414790083       18.4995920053  MEMB      9               0.0000000000
      1200        15  POPC      HX             -8.7729072094      -15.5046830715       19.4911310387  MEMB      9               0.0000000000
      1201        15  POPC      HY             -8.4756908434      -16.8245051673       18.3462266063  MEMB      9               0.0000000000
      1202        15  POPC      O31            -8.9737468299      -14.9162866798       17.5034414224  MEMB      9               0.0000000000
      1203        15  POPC      C31            -9.2995508713      -15.5646798689       16.3919947571  MEMB      9               0.0000000000
      1204        15  POPC      O32            -9.2453523602      -16.7676618143       16.2271029463  MEMB      9               0.0000000000
      1205        15  POPC      C32            -9.5537210060      -14.5926367479       15.2549606175  MEMB      9               0.0000000000
      1206        15  POPC      H2X           -10.5771990285      -14.7736881597       14.8783990531  MEMB      9               0.0000000000
      1207        15  POPC      H2Y            -8.8599078390      -14.8958741153       14.4414657568  MEMB      9               0.0000000000
      1208        15  POPC      C23            -4.7879927772      -18.3869595100       15.3205623568  MEMB      9               0.0000000000
      1209        15  POPC      H3R            -5.5743967636      -19.1705774574       15.4189799502  MEMB      9               0.0000000000
      1210        15  POPC      H3S            -4.0493273154      -18.5553969862       16.1417131357  MEMB      9               0.0000000000
      1211        15  POPC      C24            -4.0695730348      -18.5999320925       13.9858032849  MEMB      9               0.0000000000
      1212        15  POPC      H4R            -3.2834193128      -19.3686159247       14.1753457091  MEMB      9               0.0000000000
      1213        15  POPC      H4S            -3.5606087434      -17.6721211554       13.6556080994  MEMB      9               0.0000000000
      1214        15  POPC      C25            -4.9532463154      -19.1811977297       12.8690717964  MEMB      9               0.0000000000
      1215        15  POPC      H5R            -5.5845521224      -19.9844312469       13.3046877704  MEMB      9               0.0000000000
      1216        15  POPC      H5S            -4.2896254920      -19.6679249984       12.1182328810  MEMB      9               0.0000000000
      1217        15  POPC      C26            -5.8532934537      -18.1764341570       12.1291498327  MEMB      9               0.0000000000
      1218        15  POPC      H6R            -6.6494831871      -17.8109739145       12.8139961032  MEMB      9               0.0000000000
      1219        15  POPC      H6S            -6.3633313045      -18.7197704312       11.3021014599  MEMB      9               0.0000000000
      1220        15  POPC      C27            -5.1228322949      -16.9729987673       11.5129111837  MEMB      9               0.0000000000
      1221        15  POPC      H7R            -4.8120701481      -16.2847125882       12.3301924957  MEMB      9               0.0000000000
      1222        15  POPC      H7S            -5.8395104268      -16.4171014436       10.8654561311  MEMB      9               0.0000000000
      1223        15  POPC      C28            -3.8763346407      -17.3365176282       10.6791194974  MEMB      9               0.0000000000
      1224        15  POPC      H8R            -3.0983624453      -17.7436988562       11.3587877619  MEMB      9               0.0000000000
      1225        15  POPC      H8S            -3.4553039531      -16.3885464084       10.2765534127  MEMB      9               0.0000000000
      1226        15  POPC      C29            -4.1195654875      -18.3166005420        9.5578728173  MEMB      9               0.0000000000
      1227        15  POPC      H91            -3.7984329675      -19.3519372453        9.7543016463  MEMB      9               0.0000000000
      1228        15  POPC      C210           -4.6933938823      -18.0265755831        8.3794739404  MEMB      9               0.0000000000
      1229        15  POPC      H101           -4.8018647956      -18.8237207484        7.6278657088  MEMB      9               0.0000000000
      1230        15  POPC      C211           -5.1966709991      -16.6648625759        7.9767121740  MEMB      9               0.0000000000
      1231        15  POPC      H11R           -4.6277244384      -15.8530449157        8.4848266783  MEMB      9               0.0000000000
      1232        15  POPC      H11S           -6.2589125824      -16.5465924882        8.2876356362  MEMB      9               0.0000000000
      1233        15  POPC      C212           -5.1269402359      -16.4038103705        6.4657798466  MEMB      9               0.0000000000
      1234        15  POPC      H12R           -4.0723997789      -16.4118003997        6.1090636660  MEMB      9               0.0000000000
      1235        15  POPC      H12S           -5.5260645664      -15.3748949138        6.3031300014  MEMB      9               0.0000000000
      1236        15  POPC      C213           -5.9669409520      -17.3694684417        5.6169475176  MEMB      9               0.0000000000
      1237        15  POPC      H13R           -6.8951296219      -17.6515696086        6.1614289207  MEMB      9               0.0000000000
      1238        15  POPC      H13S           -5.3844225811      -18.3018364455        5.4434447247  MEMB      9               0.0000000000
      1239        15  POPC      C214           -6.3482282602      -16.7390336201        4.2722125199  MEMB      9               0.0000000000
      1240        15  POPC      H14R           -6.1486061104      -17.4666188105        3.4544326017  MEMB      9               0.0000000000
      1241        15  POPC      H14S           -5.6843241187      -15.8650930887        4.1004200304  MEMB      9               0.0000000000
      1242        15  POPC      C215           -7.8247326345      -16.3076621732        4.2060426431  MEMB      9               0.0000000000
      1243        15  POPC      H15R           -8.1672284861      -15.9926447460        5.2181416069  MEMB      9               0.0000000000
      1244        15  POPC      H15S           -8.4267010575      -17.1967308735        3.9196344069  MEMB      9               0.0000000000
      1245        15  POPC      C216           -8.1231854389      -15.1527555971        3.2331086597  MEMB      9               0.0000000000
      1246        15  POPC      H16R           -7.9142811838      -14.1917275977        3.7503071594  MEMB      9               0.0000000000
      1247        15  POPC      H16S           -9.2099628470      -15.1528038386        2.9947338134  MEMB      9               0.0000000000
      1248        15  POPC      C217           -7.3199211702      -15.1727183333        1.9242267175  MEMB      9               0.0000000000
      1249        15  POPC      H17R           -6.2377754587      -15.0589344161        2.1557746250  MEMB      9               0.0000000000
      1250        15  POPC      H17S           -7.6136905029      -14.2795447265        1.3263916017  MEMB      9               0.0000000000
      1251        15  POPC      C218           -7.5196741262      -16.4236406723        1.0705762097  MEMB      9               0.0000000000
      1252        15  POPC      H18R           -6.7460954660      -16.4851797452        0.2768949642  MEMB      9               0.0000000000
      1253        15  POPC      H18S           -8.5166855100      -16.3926897563        0.5903441559  MEMB      9               0.0000000000
      1254        15  POPC      H18T           -7.4552289545      -17.3484822953        1.6795986090  MEMB      9               0.0000000000
      1255        15  POPC      C33            -9.3395003383      -13.1018668730       15.5992260615  MEMB      9               0.0000000000
      1256        15  POPC      H3X            -8.4801807601      -12.9550400017       16.2924855113  MEMB      9               0.0000000000
      1257        15  POPC      H3Y           -10.2452320966      -12.7161690141       16.1189949644  MEMB      9               0.0000000000
      1258        15  POPC      C34            -9.0626637118      -12.3184239150       14.3164758856  MEMB      9               0.0000000000
      1259        15  POPC      H4X            -9.3016252748      -11.2465334669       14.4865951243  MEMB      9               0.0000000000
      1260        15  POPC      H4Y            -9.7385704284      -12.6854791192       13.5094223200  MEMB      9               0.0000000000
      1261        15  POPC      C35            -7.6137918835      -12.4761425544       13.8350741583  MEMB      9               0.0000000000
      1262        15  POPC      H5X            -7.3600377211      -13.5515277285       13.7124743564  MEMB      9               0.0000000000
      1263        15  POPC      H5Y            -6.9296163419      -12.0563677217       14.6050252041  MEMB      9               0.0000000000
      1264        15  POPC      C36            -7.3729993143      -11.7678644434       12.4982254599  MEMB      9               0.0000000000
      1265        15  POPC      H6X            -7.7710658094      -10.7302492745       12.5567086563  MEMB      9               0.0000000000
      1266        15  POPC      H6Y            -7.9409683026      -12.2788208810       11.6890395207  MEMB      9               0.0000000000
      1267        15  POPC      C37            -5.8936243795      -11.6854599242       12.0978094567  MEMB      9               0.0000000000
      1268        15  POPC      H7X            -5.2924861124      -11.2488933099       12.9244347380  MEMB      9               0.0000000000
      1269        15  POPC      H7Y            -5.8409251081      -10.9717376475       11.2425842306  MEMB      9               0.0000000000
      1270        15  POPC      C38            -5.3047539278      -13.0392119405       11.6721872801  MEMB      9               0.0000000000
      1271        15  POPC      H8X            -5.9688714195      -13.4892228082       10.8997552925  MEMB      9               0.0000000000
      1272        15  POPC      H8Y            -5.3001854831      -13.7301023766       12.5423623104  MEMB      9               0.0000000000
      1273        15  POPC      C39            -3.8764617953      -12.9469104456       11.1140749024  MEMB      9               0.0000000000
      1274        15  POPC      H9X            -3.5528822455      -13.9574563389       10.7764164173  MEMB      9               0.0000000000
      1275        15  POPC      H9Y            -3.1914407259      -12.6310011983       11.9331864465  MEMB      9               0.0000000000
      1276        15  POPC      C310           -3.7114922551      -11.9564202549        9.9506688933  MEMB      9               0.0000000000
      1277        15  POPC      H10X           -2.6446246765      -11.9617554299        9.6387890544  MEMB      9               0.0000000000
      1278        15  POPC      H10Y           -3.9362293200      -10.9266347578       10.3070761679  MEMB      9               0.0000000000
      1279        15  POPC      C311           -4.5850688558      -12.2653055221        8.7230524982  MEMB      9               0.0000000000
      1280        15  POPC      H11X           -5.6472778279      -12.3759904766        9.0346890433  MEMB      9               0.0000000000
      1281        15  POPC      H11Y           -4.2555809089      -13.2333031774        8.2886072009  MEMB      9               0.0000000000
      1282        15  POPC      C312           -4.5229930066      -11.1486973080        7.6689981858  MEMB      9               0.0000000000
      1283        15  POPC      H12X           -3.4645010946      -10.9133371321        7.4336840046  MEMB      9               0.0000000000
      1284        15  POPC      H12Y           -4.9776290673      -10.2327043824        8.1114058744  MEMB      9               0.0000000000
      1285        15  POPC      C313           -5.2435743058      -11.4856471798        6.3547273433  MEMB      9               0.0000000000
      1286        15  POPC      H13X           -5.3435529860      -10.5518867645        5.7573416288  MEMB      9               0.0000000000
      1287        15  POPC      H13Y           -6.2696563773      -11.8527564223        6.5786919290  MEMB      9               0.0000000000
      1288        15  POPC      C314           -4.4929075854      -12.5274897454        5.5095696089  MEMB      9               0.0000000000
      1289        15  POPC      H14X           -4.3827166279      -13.4571253656        6.1092309384  MEMB      9               0.0000000000
      1290        15  POPC      H14Y           -3.4700898225      -12.1580516304        5.2776822408  MEMB      9               0.0000000000
      1291        15  POPC      C315           -5.2164341846      -12.8750988799        4.2025147323  MEMB      9               0.0000000000
      1292        15  POPC      H15X           -6.2796240432      -13.0904407324        4.4493751127  MEMB      9               0.0000000000
      1293        15  POPC      H15Y           -4.7736586337      -13.8074482598        3.7839271307  MEMB      9               0.0000000000
      1294        15  POPC      C316           -5.1557184085      -11.7813385372        3.1327898095  MEMB      9               0.0000000000
      1295        15  POPC      H16X           -4.1046637065      -11.5752860772        2.8394157561  MEMB      9               0.0000000000
      1296        15  POPC      H16Y           -5.6056816776      -10.8403047376        3.5128202200  MEMB      9               0.0000000000
      1297        15  POPC      H16Z           -5.7234773758      -12.0946445924        2.2300346394  MEMB      9               0.0000000000
      1298        16  POPC      N               8.5165154641      -11.0844428324       17.7476021548  MEMB      10              0.0000000000
      1299        16  POPC      C12             9.6536222851      -11.7277842354       18.5503583655  MEMB      10              0.0000000000
      1300        16  POPC      H12A           10.5904144022      -11.5443616297       18.0428800037  MEMB      10              0.0000000000
      1301        16  POPC      H12B            9.5461005413      -12.8114284453       18.5922971632  MEMB      10              0.0000000000
      1302        16  POPC      C13             8.6214346272       -9.5968947126       17.8183712725  MEMB      10              0.0000000000
      1303        16  POPC      H13A            9.6058337844       -9.2525887535       17.5315259943  MEMB      10              0.0000000000
      1304        16  POPC      H13B            7.8587983665       -9.0728578077       17.2647914012  MEMB      10              0.0000000000
      1305        16  POPC      H13C            8.5136652388       -9.2979494058       18.8711904052  MEMB      10              0.0000000000
      1306        16  POPC      C14             8.5503185659      -11.5070032704       16.3252895793  MEMB      10              0.0000000000
      1307        16  POPC      H14A            8.2779800590      -12.5566077776       16.2396908861  MEMB      10              0.0000000000
      1308        16  POPC      H14B            7.8519127243      -10.9278701835       15.7323883128  MEMB      10              0.0000000000
      1309        16  POPC      H14C            9.5341127647      -11.3927300949       15.8893908300  MEMB      10              0.0000000000
      1310        16  POPC      C15             7.2167582569      -11.4799666811       18.3883544098  MEMB      10              0.0000000000
      1311        16  POPC      H15A            7.2226381845      -11.1396740377       19.4234974896  MEMB      10              0.0000000000
      1312        16  POPC      H15B            7.0861620775      -12.5509510230       18.3900536883  MEMB      10              0.0000000000
      1313        16  POPC      H15C            6.3647133591      -11.0399538252       17.8933527499  MEMB      10              0.0000000000
      1314        16  POPC      C11             9.8565034271      -11.2208562142       19.9990961331  MEMB      10              0.0000000000
      1315        16  POPC      H11A           10.5985359757      -11.8861235960       20.5058136287  MEMB      10              0.0000000000
      1316        16  POPC      H11B            8.8978567988      -11.2888880791       20.5633459594  MEMB      10              0.0000000000
      1317        16  POPC      P              10.7079233980       -9.1280645926       21.3149799017  MEMB      10              0.0000000000
      1318        16  POPC      O13            10.3041411911       -9.9477819757       22.4907597469  MEMB      10              0.0000000000
      1319        16  POPC      O14            10.2104999438       -7.7287487587       21.2351891977  MEMB      10              0.0000000000
      1320        16  POPC      O12            10.3375649945       -9.8797661193       19.9684128677  MEMB      10              0.0000000000
      1321        16  POPC      O11            12.2975388129       -9.1155051825       21.3339813287  MEMB      10              0.0000000000
      1322        16  POPC      C1             13.1010092052       -9.7880319937       20.3700020962  MEMB      10              0.0000000000
      1323        16  POPC      HA             12.6026534518      -10.6844087799       19.9297610657  MEMB      10              0.0000000000
      1324        16  POPC      HB             14.0182046774      -10.1405247423       20.8858041044  MEMB      10              0.0000000000
      1325        16  POPC      C2             13.5052761658       -8.7994531751       19.2585690341  MEMB      10              0.0000000000
      1326        16  POPC      HS             13.9594486191       -7.9307140185       19.7871065219  MEMB      10              0.0000000000
      1327        16  POPC      O21            12.3326093351       -8.4622705226       18.5050117170  MEMB      10              0.0000000000
      1328        16  POPC      C21            11.9726578845       -7.1953743679       18.5323828821  MEMB      10              0.0000000000
      1329        16  POPC      O22            12.5227834663       -6.3040212006       19.1565403133  MEMB      10              0.0000000000
      1330        16  POPC      C22            10.9425532187       -6.9502770520       17.4682191737  MEMB      10              0.0000000000
      1331        16  POPC      H2R             9.9952425289       -6.6134636167       17.9322233166  MEMB      10              0.0000000000
      1332        16  POPC      H2S            10.7613552413       -7.8816023691       16.8969272305  MEMB      10              0.0000000000
      1333        16  POPC      C3             14.5781524201       -9.3452177659       18.2776125219  MEMB      10              0.0000000000
      1334        16  POPC      HX             15.4396386340       -9.7364216443       18.8532463096  MEMB      10              0.0000000000
      1335        16  POPC      HY             14.9633241589       -8.4687247449       17.6994269897  MEMB      10              0.0000000000
      1336        16  POPC      O31            14.0291374165      -10.4061640001       17.4617862300  MEMB      10              0.0000000000
      1337        16  POPC      C31            13.7270572979      -10.0358131646       16.2098804646  MEMB      10              0.0000000000
      1338        16  POPC      O32            14.1487470897       -9.0414963983       15.6527547944  MEMB      10              0.0000000000
      1339        16  POPC      C32            12.7765264484      -11.0654525639       15.5993050713  MEMB      10              0.0000000000
      1340        16  POPC      H2X            11.8333000688      -11.0502343405       16.1791808475  MEMB      10              0.0000000000
      1341        16  POPC      H2Y            13.2547619544      -12.0561145120       15.7181342933  MEMB      10              0.0000000000
      1342        16  POPC      C23            11.5656676696       -5.8763027704       16.5789147814  MEMB      10              0.0000000000
      1343        16  POPC      H3R            12.6124170089       -6.1530620690       16.2974407137  MEMB      10              0.0000000000
      1344        16  POPC      H3S            11.5997948102       -4.9078104396       17.1331668708  MEMB      10              0.0000000000
      1345        16  POPC      C24            10.7963470233       -5.6904418814       15.2923379034  MEMB      10              0.0000000000
      1346        16  POPC      H4R            11.2298735852       -4.8025457616       14.7817913011  MEMB      10              0.0000000000
      1347        16  POPC      H4S             9.7358810556       -5.4661204033       15.5443138765  MEMB      10              0.0000000000
      1348        16  POPC      C25            10.8847340197       -6.8664654196       14.3161759870  MEMB      10              0.0000000000
      1349        16  POPC      H5R            11.3575867538       -7.7532985430       14.7885517008  MEMB      10              0.0000000000
      1350        16  POPC      H5S            11.5728766451       -6.5621896340       13.4966091061  MEMB      10              0.0000000000
      1351        16  POPC      C26             9.4996789323       -7.2395975085       13.7786229844  MEMB      10              0.0000000000
      1352        16  POPC      H6R             8.8430148786       -6.3393902360       13.7813823066  MEMB      10              0.0000000000
      1353        16  POPC      H6S             9.0483799033       -7.9874251545       14.4629400562  MEMB      10              0.0000000000
      1354        16  POPC      C27             9.4943126325       -7.7679138959       12.3439419041  MEMB      10              0.0000000000
      1355        16  POPC      H7R             8.4541252984       -8.0513517647       12.0836274581  MEMB      10              0.0000000000
      1356        16  POPC      H7S            10.1091765130       -8.6907555959       12.2992816851  MEMB      10              0.0000000000
      1357        16  POPC      C28             9.9850979026       -6.7281986672       11.3216237037  MEMB      10              0.0000000000
      1358        16  POPC      H8R            11.0676489236       -6.5319604251       11.4812439280  MEMB      10              0.0000000000
      1359        16  POPC      H8S             9.4527920851       -5.7650661862       11.4848992829  MEMB      10              0.0000000000
      1360        16  POPC      C29             9.7458212218       -7.2373705333        9.9309123093  MEMB      10              0.0000000000
      1361        16  POPC      H91             8.8749292559       -6.8114127160        9.4078972875  MEMB      10              0.0000000000
      1362        16  POPC      C210           10.5050155580       -8.1657191217        9.3314983091  MEMB      10              0.0000000000
      1363        16  POPC      H101           10.2198053770       -8.5173867042        8.3311728473  MEMB      10              0.0000000000
      1364        16  POPC      C211           11.7123170844       -8.8547848965        9.9234976735  MEMB      10              0.0000000000
      1365        16  POPC      H11R           11.6422426620       -9.9451851606        9.7275509555  MEMB      10              0.0000000000
      1366        16  POPC      H11S           11.7700182602       -8.7436068352       11.0293583204  MEMB      10              0.0000000000
      1367        16  POPC      C212           13.0555167963       -8.3416127097        9.3693944796  MEMB      10              0.0000000000
      1368        16  POPC      H12R           13.8639771878       -9.0214375043        9.7223777218  MEMB      10              0.0000000000
      1369        16  POPC      H12S           13.2587330561       -7.3356808744        9.8019217288  MEMB      10              0.0000000000
      1370        16  POPC      C213           13.1096685038       -8.2268741904        7.8423559244  MEMB      10              0.0000000000
      1371        16  POPC      H13R           14.1284245899       -7.9022246302        7.5308979101  MEMB      10              0.0000000000
      1372        16  POPC      H13S           12.4115000089       -7.4161326449        7.5319363861  MEMB      10              0.0000000000
      1373        16  POPC      C214           12.7459498276       -9.5207511694        7.1006507598  MEMB      10              0.0000000000
      1374        16  POPC      H14R           11.9017661499      -10.0583592406        7.5804981227  MEMB      10              0.0000000000
      1375        16  POPC      H14S           13.6264734832      -10.1990978227        7.1248462875  MEMB      10              0.0000000000
      1376        16  POPC      C215           12.3495452165       -9.2323975977        5.6535838723  MEMB      10              0.0000000000
      1377        16  POPC      H15R           12.4572139986      -10.1454904790        5.0432005529  MEMB      10              0.0000000000
      1378        16  POPC      H15S           13.0675358397       -8.4985219376        5.2459877986  MEMB      10              0.0000000000
      1379        16  POPC      C216           10.9093444607       -8.7263469733        5.4981110495  MEMB      10              0.0000000000
      1380        16  POPC      H16R           10.6082443801       -8.1294846331        6.3832164099  MEMB      10              0.0000000000
      1381        16  POPC      H16S           10.2294164890       -9.6052940277        5.4289825034  MEMB      10              0.0000000000
      1382        16  POPC      C217           10.7479151278       -7.8248363631        4.2756629450  MEMB      10              0.0000000000
      1383        16  POPC      H17R           11.4244236811       -8.1862014361        3.4718636412  MEMB      10              0.0000000000
      1384        16  POPC      H17S           11.0831356715       -6.7971399229        4.5469972032  MEMB      10              0.0000000000
      1385        16  POPC      C218            9.3246616420       -7.7615638545        3.7430920185  MEMB      10              0.0000000000
      1386        16  POPC      H18R            8.6223399409       -7.4129028728        4.5296706190  MEMB      10              0.0000000000
      1387        16  POPC      H18S            8.9896906332       -8.7559384569        3.3776010494  MEMB      10              0.0000000000
      1388        16  POPC      H18T            9.2878709369       -7.0447699500        2.8973649239  MEMB      10              0.0000000000
      1389        16  POPC      C33            12.4854822892      -10.8120795080       14.1025517807  MEMB      10              0.0000000000
      1390        16  POPC      H3X            13.4324862227      -10.5488440679       13.5744855739  MEMB      10              0.0000000000
      1391        16  POPC      H3Y            11.8143143338       -9.9341615246       13.9765953104  MEMB      10              0.0000000000
      1392        16  POPC      C34            11.8810163413      -12.0389416242       13.4005532526  MEMB      10              0.0000000000
      1393        16  POPC      H4X            10.9014230879      -12.3008521952       13.8515306614  MEMB      10              0.0000000000
      1394        16  POPC      H4Y            12.5627767729      -12.9035364537       13.5614568210  MEMB      10              0.0000000000
      1395        16  POPC      C35            11.7100875785      -11.8060273033       11.8896197995  MEMB      10              0.0000000000
      1396        16  POPC      H5X            12.6208159352      -11.2923729054       11.5031880692  MEMB      10              0.0000000000
      1397        16  POPC      H5Y            10.8519289195      -11.1200443614       11.7165520061  MEMB      10              0.0000000000
      1398        16  POPC      C36            11.5205483221      -13.0879891411       11.0618260529  MEMB      10              0.0000000000
      1399        16  POPC      H6X            10.6291674800      -13.6459897948       11.4263240425  MEMB      10              0.0000000000
      1400        16  POPC      H6Y            12.4066705859      -13.7476599867       11.1969038130  MEMB      10              0.0000000000
      1401        16  POPC      C37            11.3585261867      -12.7882783046        9.5622508635  MEMB      10              0.0000000000
      1402        16  POPC      H7X            12.2033384996      -12.1542983783        9.2098040034  MEMB      10              0.0000000000
      1403        16  POPC      H7Y            10.4166773148      -12.2102392414        9.4242613256  MEMB      10              0.0000000000
      1404        16  POPC      C38            11.3025252910      -14.0556368683        8.6987938600  MEMB      10              0.0000000000
      1405        16  POPC      H8X            10.5801245823      -14.7562810253        9.1787806673  MEMB      10              0.0000000000
      1406        16  POPC      H8Y            12.2950161872      -14.5526814722        8.6812735088  MEMB      10              0.0000000000
      1407        16  POPC      C39            10.8267708768      -13.7968774976        7.2624738699  MEMB      10              0.0000000000
      1408        16  POPC      H9X            10.0244621421      -13.0279799109        7.2974489094  MEMB      10              0.0000000000
      1409        16  POPC      H9Y            10.3831959533      -14.7368325338        6.8601589213  MEMB      10              0.0000000000
      1410        16  POPC      C310           11.9134453974      -13.3394718122        6.2761325849  MEMB      10              0.0000000000
      1411        16  POPC      H10X           12.6803298067      -14.1344022101        6.1611644728  MEMB      10              0.0000000000
      1412        16  POPC      H10Y           12.4158590552      -12.4310130201        6.6752115459  MEMB      10              0.0000000000
      1413        16  POPC      C311           11.3040061957      -13.0255167729        4.9019392529  MEMB      10              0.0000000000
      1414        16  POPC      H11X           10.5166849552      -12.2520598702        5.0626145048  MEMB      10              0.0000000000
      1415        16  POPC      H11Y           10.8092127159      -13.9378583843        4.5011368953  MEMB      10              0.0000000000
      1416        16  POPC      C312           12.2895014537      -12.5017726356        3.8437213343  MEMB      10              0.0000000000
      1417        16  POPC      H12X           12.7742718306      -13.3534650920        3.3192086684  MEMB      10              0.0000000000
      1418        16  POPC      H12Y           13.0962309784      -11.9334032551        4.3502108326  MEMB      10              0.0000000000
      1419        16  POPC      C313           11.5898391802      -11.5797037604        2.8298479669  MEMB      10              0.0000000000
      1420        16  POPC      H13X           10.9818035534      -10.8272035258        3.3805849501  MEMB      10              0.0000000000
      1421        16  POPC      H13Y           10.8865162597      -12.1945773558        2.2317563555  MEMB      10              0.0000000000
      1422        16  POPC      C314           12.5492947972      -10.8254474945        1.8963142061  MEMB      10              0.0000000000
      1423        16  POPC      H14X           13.0961990671      -11.5660883560        1.2715917454  MEMB      10              0.0000000000
      1424        16  POPC      H14Y           13.3001817214      -10.2756718555        2.5086543938  MEMB      10              0.0000000000
      1425        16  POPC      C315           11.8433835953       -9.8182047112        0.9694305356  MEMB      10              0.0000000000
      1426        16  POPC      H15X           12.5998769508       -9.3819965492        0.2794708496  MEMB      10              0.0000000000
      1427        16  POPC      H15Y           11.4356471918       -8.9825293960        1.5773430967  MEMB      10              0.0000000000
      1428        16  POPC      C316           10.7005439460      -10.4043140123        0.1404621753  MEMB      10              0.0000000000
      1429        16  POPC      H16X           10.3045482979       -9.6520093945       -0.5750963788  MEMB      10              0.0000000000
      1430        16  POPC      H16Y            9.8635851865      -10.7224753328        0.7988175137  MEMB      10              0.0000000000
      1431        16  POPC      H16Z           11.0452308515      -11.2902207441       -0.4337936703  MEMB      10              0.0000000000
      1432        17  POPC      N              15.2084974579       -5.3431564391       21.1281161350  MEMB      11              0.0000000000
      1433        17  POPC      C12            15.1731310872       -5.5834627186       19.6344830795  MEMB      11              0.0000000000
      1434        17  POPC      H12A           14.1779248468       -5.2982760553       19.2837132538  MEMB      11              0.0000000000
      1435        17  POPC      H12B           15.2809527397       -6.6293267458       19.4260891601  MEMB      11              0.0000000000
      1436        17  POPC      C13            14.9258146329       -3.8882164880       21.3669485746  MEMB      11              0.0000000000
      1437        17  POPC      H13A           15.1541713030       -3.6108101453       22.3868466674  MEMB      11              0.0000000000
      1438        17  POPC      H13B           15.5438240813       -3.2856826276       20.6922148310  MEMB      11              0.0000000000
      1439        17  POPC      H13C           13.8898482309       -3.6606665445       21.1533537127  MEMB      11              0.0000000000
      1440        17  POPC      C14            14.1644989550       -6.1309834262       21.8431424317  MEMB      11              0.0000000000
      1441        17  POPC      H14A           13.1628753770       -5.9133325419       21.4593235350  MEMB      11              0.0000000000
      1442        17  POPC      H14B           14.3247375111       -7.1939624894       21.7637852323  MEMB      11              0.0000000000
      1443        17  POPC      H14C           14.1397563098       -5.8579882964       22.8915181106  MEMB      11              0.0000000000
      1444        17  POPC      C15            16.5362322058       -5.6606746538       21.7254458135  MEMB      11              0.0000000000
      1445        17  POPC      H15A           16.7978193578       -6.7125877199       21.7067041253  MEMB      11              0.0000000000
      1446        17  POPC      H15B           16.5222373682       -5.3656500234       22.7710831671  MEMB      11              0.0000000000
      1447        17  POPC      H15C           17.3257154944       -5.0762431068       21.2567524916  MEMB      11              0.0000000000
      1448        17  POPC      C11            16.1368490508       -4.7822459514       18.7481029939  MEMB      11              0.0000000000
      1449        17  POPC      H11A           16.1243588349       -5.2529989456       17.7320594137  MEMB      11              0.0000000000
      1450        17  POPC      H11B           17.1785689551       -4.8181805212       19.1430867237  MEMB      11              0.0000000000
      1451        17  POPC      P              16.1216848327       -2.4874579044       17.5213651417  MEMB      11              0.0000000000
      1452        17  POPC      O13            16.9898829201       -3.2346950675       16.5830839986  MEMB      11              0.0000000000
      1453        17  POPC      O14            16.6414427770       -1.2384125945       18.1124631386  MEMB      11              0.0000000000
      1454        17  POPC      O12            15.6580251202       -3.4455033218       18.6976308123  MEMB      11              0.0000000000
      1455        17  POPC      O11            14.7631453709       -2.1158200298       16.8348810736  MEMB      11              0.0000000000
      1456        17  POPC      C1             13.8240064158       -3.0542117118       16.3461629539  MEMB      11              0.0000000000
      1457        17  POPC      HA             12.8113312643       -2.7286248590       16.6725048764  MEMB      11              0.0000000000
      1458        17  POPC      HB             13.9963239133       -4.0852439582       16.7334626699  MEMB      11              0.0000000000
      1459        17  POPC      C2             13.8660342447       -3.0618246530       14.8055693136  MEMB      11              0.0000000000
      1460        17  POPC      HS             13.0170435131       -3.6836200387       14.4386697056  MEMB      11              0.0000000000
      1461        17  POPC      O21            15.1439531943       -3.5348609731       14.3661677746  MEMB      11              0.0000000000
      1462        17  POPC      C21            15.1999228140       -4.8051664930       14.0754494298  MEMB      11              0.0000000000
      1463        17  POPC      O22            14.2349984387       -5.5502854998       13.9920821305  MEMB      11              0.0000000000
      1464        17  POPC      C22            16.6492734443       -5.2404059975       13.8728903731  MEMB      11              0.0000000000
      1465        17  POPC      H2R            16.9211297035       -5.8362693126       14.7670957184  MEMB      11              0.0000000000
      1466        17  POPC      H2S            17.2997285784       -4.3430846960       13.8536417226  MEMB      11              0.0000000000
      1467        17  POPC      C3             13.6757901619       -1.6509488843       14.2174160192  MEMB      11              0.0000000000
      1468        17  POPC      HX             14.6276775976       -1.0757787499       14.3100667543  MEMB      11              0.0000000000
      1469        17  POPC      HY             12.9112503002       -1.1190175658       14.8237382435  MEMB      11              0.0000000000
      1470        17  POPC      O31            13.2011608060       -1.7655664922       12.8624964309  MEMB      11              0.0000000000
      1471        17  POPC      C31            14.1376936378       -1.9739181561       11.9408583865  MEMB      11              0.0000000000
      1472        17  POPC      O32            15.3383936453       -1.8836970595       12.1002020547  MEMB      11              0.0000000000
      1473        17  POPC      C32            13.4405755196       -2.3737923959       10.6447831991  MEMB      11              0.0000000000
      1474        17  POPC      H2X            12.6740616619       -1.6039300690       10.4206600166  MEMB      11              0.0000000000
      1475        17  POPC      H2Y            12.9258199692       -3.3440012645       10.8087580713  MEMB      11              0.0000000000
      1476        17  POPC      C23            16.8402629812       -6.0958529521       12.6003768000  MEMB      11              0.0000000000
      1477        17  POPC      H3R            16.0934860233       -6.9194414521       12.5588458856  MEMB      11              0.0000000000
      1478        17  POPC      H3S            17.8494622006       -6.5642399638       12.6565423020  MEMB      11              0.0000000000
      1479        17  POPC      C24            16.7702823649       -5.2614292165       11.3153603229  MEMB      11              0.0000000000
      1480        17  POPC      H4R            17.3590390703       -4.3272199527       11.4688604909  MEMB      11              0.0000000000
      1481        17  POPC      H4S            15.7163515559       -4.9624801642       11.1248384075  MEMB      11              0.0000000000
      1482        17  POPC      C25            17.3414307112       -6.0099767586       10.1033492863  MEMB      11              0.0000000000
      1483        17  POPC      H5R            16.7330857525       -6.9209064165        9.9118415062  MEMB      11              0.0000000000
      1484        17  POPC      H5S            18.3781874250       -6.3342473709       10.3517972096  MEMB      11              0.0000000000
      1485        17  POPC      C26            17.3960442873       -5.1481781721        8.8352975625  MEMB      11              0.0000000000
      1486        17  POPC      H6R            17.8731287230       -4.1728832153        9.0856127587  MEMB      11              0.0000000000
      1487        17  POPC      H6S            16.3619010730       -4.9392127331        8.4839863179  MEMB      11              0.0000000000
      1488        17  POPC      C27            18.1979185080       -5.7912173031        7.6878760104  MEMB      11              0.0000000000
      1489        17  POPC      H7R            19.2498663739       -5.9506635513        8.0141080863  MEMB      11              0.0000000000
      1490        17  POPC      H7S            18.2178061400       -5.0611396387        6.8455088925  MEMB      11              0.0000000000
      1491        17  POPC      C28            17.6007664266       -7.1248917787        7.1936682772  MEMB      11              0.0000000000
      1492        17  POPC      H8R            16.5024070543       -6.9755684368        7.0803764840  MEMB      11              0.0000000000
      1493        17  POPC      H8S            17.7347479215       -7.9017924161        7.9782327031  MEMB      11              0.0000000000
      1494        17  POPC      C29            18.2146085569       -7.5902897970        5.8941859634  MEMB      11              0.0000000000
      1495        17  POPC      H91            19.0912044269       -8.2488082731        5.9876336901  MEMB      11              0.0000000000
      1496        17  POPC      C210           17.7860913785       -7.2408566184        4.6679647784  MEMB      11              0.0000000000
      1497        17  POPC      H101           18.3025158414       -7.6334007246        3.7780220868  MEMB      11              0.0000000000
      1498        17  POPC      C211           16.6207403479       -6.3229047924        4.4009607617  MEMB      11              0.0000000000
      1499        17  POPC      H11R           16.7766221053       -5.7438221588        3.4627799344  MEMB      11              0.0000000000
      1500        17  POPC      H11S           16.5223744986       -5.5756024479        5.2190999003  MEMB      11              0.0000000000
      1501        17  POPC      C212           15.2978837103       -7.0963507001        4.3151444025  MEMB      11              0.0000000000
      1502        17  POPC      H12R           15.2598984527       -7.8796696735        5.1098612381  MEMB      11              0.0000000000
      1503        17  POPC      H12S           15.2422281549       -7.6339024643        3.3463036322  MEMB      11              0.0000000000
      1504        17  POPC      C213           14.0472136055       -6.2183274996        4.4979834155  MEMB      11              0.0000000000
      1505        17  POPC      H13R           13.8626962782       -6.0901586107        5.5899433832  MEMB      11              0.0000000000
      1506        17  POPC      H13S           13.1877091684       -6.7737619911        4.0675794630  MEMB      11              0.0000000000
      1507        17  POPC      C214           14.0583818831       -4.8260142874        3.8577354511  MEMB      11              0.0000000000
      1508        17  POPC      H14R           14.2600514224       -4.9094808988        2.7692844962  MEMB      11              0.0000000000
      1509        17  POPC      H14S           14.8703618123       -4.2122708743        4.3022347442  MEMB      11              0.0000000000
      1510        17  POPC      C215           12.7106722911       -4.1260571497        4.1020315413  MEMB      11              0.0000000000
      1511        17  POPC      H15R           12.5204799149       -4.1030981862        5.1993801268  MEMB      11              0.0000000000
      1512        17  POPC      H15S           11.8948320632       -4.7384090160        3.6595340730  MEMB      11              0.0000000000
      1513        17  POPC      C216           12.6340407208       -2.6901814928        3.5621185235  MEMB      11              0.0000000000
      1514        17  POPC      H16R           13.4152701670       -2.0603931508        4.0441176901  MEMB      11              0.0000000000
      1515        17  POPC      H16S           11.6450734712       -2.2656447958        3.8473506263  MEMB      11              0.0000000000
      1516        17  POPC      C217           12.7948258527       -2.5851682251        2.0402591309  MEMB      11              0.0000000000
      1517        17  POPC      H17R           13.8734331526       -2.7181996077        1.7963691922  MEMB      11              0.0000000000
      1518        17  POPC      H17S           12.5072495700       -1.5537281725        1.7310135973  MEMB      11              0.0000000000
      1519        17  POPC      C218           11.9727922618       -3.6015694556        1.2436390563  MEMB      11              0.0000000000
      1520        17  POPC      H18R           12.4016106140       -4.6210973613        1.3377726282  MEMB      11              0.0000000000
      1521        17  POPC      H18S           11.9495049074       -3.3313578083        0.1664373379  MEMB      11              0.0000000000
      1522        17  POPC      H18T           10.9295781873       -3.6346766437        1.6229735664  MEMB      11              0.0000000000
      1523        17  POPC      C33            14.4321983002       -2.4814312556        9.4694753196  MEMB      11              0.0000000000
      1524        17  POPC      H3X            15.0506717659       -3.3982869117        9.5858671108  MEMB      11              0.0000000000
      1525        17  POPC      H3Y            15.1280207327       -1.6092793727        9.4734882021  MEMB      11              0.0000000000
      1526        17  POPC      C34            13.7079454248       -2.5046742466        8.1228789639  MEMB      11              0.0000000000
      1527        17  POPC      H4X            13.2152903186       -1.5209399176        7.9562463458  MEMB      11              0.0000000000
      1528        17  POPC      H4Y            12.9052342598       -3.2769902724        8.1578093634  MEMB      11              0.0000000000
      1529        17  POPC      C35            14.6264766462       -2.8101074120        6.9352536885  MEMB      11              0.0000000000
      1530        17  POPC      H5X            14.0261745518       -2.6937034496        6.0087238497  MEMB      11              0.0000000000
      1531        17  POPC      H5Y            14.9552708428       -3.8731921775        6.9890207725  MEMB      11              0.0000000000
      1532        17  POPC      C36            15.8771032459       -1.9259967507        6.7933630192  MEMB      11              0.0000000000
      1533        17  POPC      H6X            16.5421834739       -2.0682022171        7.6728639377  MEMB      11              0.0000000000
      1534        17  POPC      H6Y            15.5861305770       -0.8539380138        6.7446695949  MEMB      11              0.0000000000
      1535        17  POPC      C37            16.6364367966       -2.3182966601        5.5175649194  MEMB      11              0.0000000000
      1536        17  POPC      H7X            15.9725004394       -2.1212343824        4.6463404392  MEMB      11              0.0000000000
      1537        17  POPC      H7Y            16.8234559339       -3.4153700780        5.5576192519  MEMB      11              0.0000000000
      1538        17  POPC      C38            17.9877085749       -1.6230645001        5.3013497814  MEMB      11              0.0000000000
      1539        17  POPC      H8X            18.5685914890       -1.6632536938        6.2507858543  MEMB      11              0.0000000000
      1540        17  POPC      H8Y            17.8228091568       -0.5535340415        5.0445344741  MEMB      11              0.0000000000
      1541        17  POPC      C39            18.8177854698       -2.3064171624        4.1973751262  MEMB      11              0.0000000000
      1542        17  POPC      H9X            18.9977450644       -3.3634905371        4.5015686053  MEMB      11              0.0000000000
      1543        17  POPC      H9Y            19.8091868384       -1.8100798345        4.1144906358  MEMB      11              0.0000000000
      1544        17  POPC      C310           18.1372382295       -2.3032049499        2.8183658435  MEMB      11              0.0000000000
      1545        17  POPC      H10X           18.0822982534       -1.2600981588        2.4359228869  MEMB      11              0.0000000000
      1546        17  POPC      H10Y           17.0969438301       -2.6774634449        2.9351743762  MEMB      11              0.0000000000
      1547        17  POPC      C311           18.8422070426       -3.2004115908        1.7886524907  MEMB      11              0.0000000000
      1548        17  POPC      H11X           18.8021088101       -4.2515303999        2.1561109102  MEMB      11              0.0000000000
      1549        17  POPC      H11Y           19.9135364186       -2.9071257494        1.7152112474  MEMB      11              0.0000000000
      1550        17  POPC      C312           18.2090972542       -3.1413909512        0.3873433919  MEMB      11              0.0000000000
      1551        17  POPC      H12X           18.6974535625       -3.8978096702       -0.2667929846  MEMB      11              0.0000000000
      1552        17  POPC      H12Y           18.4005800905       -2.1375619699       -0.0540703785  MEMB      11              0.0000000000
      1553        17  POPC      C313           16.6955037606       -3.3940201131        0.3847496753  MEMB      11              0.0000000000
      1554        17  POPC      H13X           16.1917787707       -2.5996150340        0.9814142545  MEMB      11              0.0000000000
      1555        17  POPC      H13Y           16.4740199512       -4.3721420843        0.8675888211  MEMB      11              0.0000000000
      1556        17  POPC      C314           16.0836596147       -3.3662039328       -1.0198286763  MEMB      11              0.0000000000
      1557        17  POPC      H14X           16.4426017281       -4.2322937853       -1.6110384273  MEMB      11              0.0000000000
      1558        17  POPC      H14Y           16.4318953220       -2.4506575479       -1.5399918698  MEMB      11              0.0000000000
      1559        17  POPC      C315           14.5540173973       -3.3906128375       -0.9546383697  MEMB      11              0.0000000000
      1560        17  POPC      H15X           14.2157014469       -2.5353447899       -0.3326308549  MEMB      11              0.0000000000
      1561        17  POPC      H15Y           14.2499705637       -4.3275584716       -0.4324819491  MEMB      11              0.0000000000
      1562        17  POPC      C316           13.8447635567       -3.3246634920       -2.3034602678  MEMB      11              0.0000000000
      1563        17  POPC      H16X           12.7920462043       -3.6579472184       -2.2009988411  MEMB      11              0.0000000000
      1564        17  POPC      H16Y           14.3718758055       -3.9750307145       -3.0311516374  MEMB      11              0.0000000000
      1565        17  POPC      H16Z           13.8113486247       -2.2978408989       -2.7142473342  MEMB      11              0.0000000000
      1566        18  POPC      N              12.4044352933       11.6556149646       20.0003850792  MEMB      12              0.0000000000
      1567        18  POPC      C12            12.5619326197       13.0282704995       19.3436304296  MEMB      12              0.0000000000
      1568        18  POPC      H12A           12.6244541412       12.8842249610       18.2724222230  MEMB      12              0.0000000000
      1569        18  POPC      H12B           13.5011382017       13.4529078286       19.6822780343  MEMB      12              0.0000000000
      1570        18  POPC      C13            11.5891222063       11.8775967359       21.2347208432  MEMB      12              0.0000000000
      1571        18  POPC      H13A           11.2895795816       10.9489404270       21.6893976953  MEMB      12              0.0000000000
      1572        18  POPC      H13B           12.1050147052       12.5157966513       21.9405437831  MEMB      12              0.0000000000
      1573        18  POPC      H13C           10.6856037995       12.4307638254       20.9363186785  MEMB      12              0.0000000000
      1574        18  POPC      C14            11.6331999165       10.7508671529       19.0795449357  MEMB      12              0.0000000000
      1575        18  POPC      H14A           12.1173599867       10.6081605191       18.1219423731  MEMB      12              0.0000000000
      1576        18  POPC      H14B           11.4844730493        9.7578821333       19.5015709087  MEMB      12              0.0000000000
      1577        18  POPC      H14C           10.6505530851       11.1856510810       18.9020221381  MEMB      12              0.0000000000
      1578        18  POPC      C15            13.7312844732       11.0245001390       20.3250907643  MEMB      12              0.0000000000
      1579        18  POPC      H15A           14.3706969827       10.8886478052       19.4493483850  MEMB      12              0.0000000000
      1580        18  POPC      H15B           13.6051043656       10.0346892831       20.7598242701  MEMB      12              0.0000000000
      1581        18  POPC      H15C           14.2846156363       11.6115100064       21.0494698302  MEMB      12              0.0000000000
      1582        18  POPC      C11            11.4591942166       14.1191011230       19.5986190400  MEMB      12              0.0000000000
      1583        18  POPC      H11A           11.7163458673       14.9908536512       18.9505809842  MEMB      12              0.0000000000
      1584        18  POPC      H11B           11.5281989482       14.4804662317       20.6500869301  MEMB      12              0.0000000000
      1585        18  POPC      P               8.9669359119       14.7259385256       19.0425599784  MEMB      12              0.0000000000
      1586        18  POPC      O13             9.1977265066       15.9744683415       19.8257736537  MEMB      12              0.0000000000
      1587        18  POPC      O14             7.6370803790       14.0904975381       19.1745543093  MEMB      12              0.0000000000
      1588        18  POPC      O12            10.1253243329       13.6564025863       19.3494569227  MEMB      12              0.0000000000
      1589        18  POPC      O11             9.2754824636       14.9817344641       17.5188382889  MEMB      12              0.0000000000
      1590        18  POPC      C1              8.6246392061       16.0035404439       16.7670212207  MEMB      12              0.0000000000
      1591        18  POPC      HA              9.3872205494       16.5344423113       16.1553576846  MEMB      12              0.0000000000
      1592        18  POPC      HB              8.1302100517       16.7719814529       17.4068774754  MEMB      12              0.0000000000
      1593        18  POPC      C2              7.6053083657       15.3737761654       15.7930956968  MEMB      12              0.0000000000
      1594        18  POPC      HS              6.9306015312       14.7468278902       16.4278637654  MEMB      12              0.0000000000
      1595        18  POPC      O21             8.3413773388       14.5776313045       14.8405861422  MEMB      12              0.0000000000
      1596        18  POPC      C21             7.6124140020       13.5959527660       14.3237343274  MEMB      12              0.0000000000
      1597        18  POPC      O22             6.4461489576       13.3804263702       14.6124404678  MEMB      12              0.0000000000
      1598        18  POPC      C22             8.4172705143       12.8012060891       13.3016670768  MEMB      12              0.0000000000
      1599        18  POPC      H2R             7.7842370583       11.9497971481       12.9778854389  MEMB      12              0.0000000000
      1600        18  POPC      H2S             9.3167678735       12.3986512894       13.8089517290  MEMB      12              0.0000000000
      1601        18  POPC      C3              6.7513696311       16.4502565138       15.0596725099  MEMB      12              0.0000000000
      1602        18  POPC      HX              6.0996808483       16.9358187021       15.8181682691  MEMB      12              0.0000000000
      1603        18  POPC      HY              6.0860982794       15.9668861281       14.3115497610  MEMB      12              0.0000000000
      1604        18  POPC      O31             7.5938812333       17.4606906220       14.4821106733  MEMB      12              0.0000000000
      1605        18  POPC      C31             8.0251658254       17.2446002536       13.2526912470  MEMB      12              0.0000000000
      1606        18  POPC      O32             7.5392403516       16.4873222936       12.4364938366  MEMB      12              0.0000000000
      1607        18  POPC      C32             9.2623949787       18.1112816467       13.0451175998  MEMB      12              0.0000000000
      1608        18  POPC      H2X             9.8355500481       18.0692619639       13.9960538033  MEMB      12              0.0000000000
      1609        18  POPC      H2Y             8.9363880578       19.1539037287       12.8574740125  MEMB      12              0.0000000000
      1610        18  POPC      C23             8.8279511412       13.6490882398       12.0852349819  MEMB      12              0.0000000000
      1611        18  POPC      H3R             9.5247299914       14.4471475503       12.4287451443  MEMB      12              0.0000000000
      1612        18  POPC      H3S             7.9296952969       14.1429119260       11.6462910038  MEMB      12              0.0000000000
      1613        18  POPC      C24             9.5070613578       12.8197039012       10.9943637506  MEMB      12              0.0000000000
      1614        18  POPC      H4R             8.7589257043       12.1295894263       10.5431139760  MEMB      12              0.0000000000
      1615        18  POPC      H4S            10.3039559456       12.1937444411       11.4614932385  MEMB      12              0.0000000000
      1616        18  POPC      C25            10.1382579978       13.6925608589        9.8987278934  MEMB      12              0.0000000000
      1617        18  POPC      H5R            10.5963940038       13.0324905576        9.1296805159  MEMB      12              0.0000000000
      1618        18  POPC      H5S            10.9599585782       14.2865079744       10.3594541123  MEMB      12              0.0000000000
      1619        18  POPC      C26             9.1732305668       14.6697091003        9.1993153253  MEMB      12              0.0000000000
      1620        18  POPC      H6R             9.7692563184       15.2649431791        8.4720158392  MEMB      12              0.0000000000
      1621        18  POPC      H6S             8.7491101272       15.3917742840        9.9334216099  MEMB      12              0.0000000000
      1622        18  POPC      C27             8.0213111368       13.9762305212        8.4520597529  MEMB      12              0.0000000000
      1623        18  POPC      H7R             7.2981109606       13.5888590473        9.2063655475  MEMB      12              0.0000000000
      1624        18  POPC      H7S             8.4154134991       13.0985669043        7.8942654191  MEMB      12              0.0000000000
      1625        18  POPC      C28             7.2620479774       14.9066561669        7.4772708962  MEMB      12              0.0000000000
      1626        18  POPC      H8R             7.0086747287       15.8435014211        8.0241675251  MEMB      12              0.0000000000
      1627        18  POPC      H8S             6.2965287176       14.4080854464        7.2318982900  MEMB      12              0.0000000000
      1628        18  POPC      C29             8.0306613497       15.2181952479        6.2120337746  MEMB      12              0.0000000000
      1629        18  POPC      H91             9.1265094697       15.1521887308        6.3009475720  MEMB      12              0.0000000000
      1630        18  POPC      C210            7.5000916838       15.5625671008        5.0204725276  MEMB      12              0.0000000000
      1631        18  POPC      H101            8.1751181025       15.7338306566        4.1672423513  MEMB      12              0.0000000000
      1632        18  POPC      C211            6.0301243122       15.7112913886        4.7118094334  MEMB      12              0.0000000000
      1633        18  POPC      H11R            5.8560397553       16.5776742962        4.0356521736  MEMB      12              0.0000000000
      1634        18  POPC      H11S            5.4673870934       15.9306343463        5.6463715451  MEMB      12              0.0000000000
      1635        18  POPC      C212            5.4017866647       14.4493063331        4.0912766922  MEMB      12              0.0000000000
      1636        18  POPC      H12R            4.2960094443       14.5552566421        4.1196850650  MEMB      12              0.0000000000
      1637        18  POPC      H12S            5.6527248916       13.5712510336        4.7292874499  MEMB      12              0.0000000000
      1638        18  POPC      C213            5.8274936486       14.1468502543        2.6443734173  MEMB      12              0.0000000000
      1639        18  POPC      H13R            5.3618968129       13.1743975234        2.3579985529  MEMB      12              0.0000000000
      1640        18  POPC      H13S            6.9287622655       14.0108394948        2.6068891755  MEMB      12              0.0000000000
      1641        18  POPC      C214            5.4320420059       15.1992553702        1.5924800495  MEMB      12              0.0000000000
      1642        18  POPC      H14R            6.2477391452       15.9532804331        1.5179668295  MEMB      12              0.0000000000
      1643        18  POPC      H14S            4.5113031758       15.7370080041        1.9040603442  MEMB      12              0.0000000000
      1644        18  POPC      C215            5.1933110180       14.5512389247        0.2162268650  MEMB      12              0.0000000000
      1645        18  POPC      H15R            4.1999066923       14.0558673490        0.1959931428  MEMB      12              0.0000000000
      1646        18  POPC      H15S            5.9420924402       13.7407278877        0.0930473278  MEMB      12              0.0000000000
      1647        18  POPC      C216            5.3456121686       15.5002533136       -0.9834966509  MEMB      12              0.0000000000
      1648        18  POPC      H16R            5.3138005438       14.8959466151       -1.9191731916  MEMB      12              0.0000000000
      1649        18  POPC      H16S            6.3511568524       15.9736307951       -0.9313324317  MEMB      12              0.0000000000
      1650        18  POPC      C217            4.2753271437       16.5927172141       -1.0889192688  MEMB      12              0.0000000000
      1651        18  POPC      H17R            4.2121828664       17.1399071526       -0.1210122017  MEMB      12              0.0000000000
      1652        18  POPC      H17S            3.2850846065       16.1241795118       -1.2867814752  MEMB      12              0.0000000000
      1653        18  POPC      C218            4.5643110308       17.5899845118       -2.2079549955  MEMB      12              0.0000000000
      1654        18  POPC      H18R            5.5939715987       17.9838852073       -2.0964553072  MEMB      12              0.0000000000
      1655        18  POPC      H18S            3.8517834956       18.4411445919       -2.1757748396  MEMB      12              0.0000000000
      1656        18  POPC      H18T            4.4832381596       17.1006151310       -3.2022577375  MEMB      12              0.0000000000
      1657        18  POPC      C33            10.1926290126       17.6340243303       11.9117551204  MEMB      12              0.0000000000
      1658        18  POPC      H3X             9.8569059161       18.0977060146       10.9612290213  MEMB      12              0.0000000000
      1659        18  POPC      H3Y            10.1283557561       16.5312836505       11.7785085214  MEMB      12              0.0000000000
      1660        18  POPC      C34            11.6599761943       17.9931721402       12.2021066864  MEMB      12              0.0000000000
      1661        18  POPC      H4X            12.0637859503       17.2549867084       12.9311413114  MEMB      12              0.0000000000
      1662        18  POPC      H4Y            11.6985717539       18.9906059175       12.6988018144  MEMB      12              0.0000000000
      1663        18  POPC      C35            12.5681946269       18.0347611186       10.9623566342  MEMB      12              0.0000000000
      1664        18  POPC      H5X            13.6311689860       18.0897413765       11.2884942690  MEMB      12              0.0000000000
      1665        18  POPC      H5Y            12.3502406630       18.9710694420       10.4014405846  MEMB      12              0.0000000000
      1666        18  POPC      C36            12.3997109416       16.8561454021        9.9917376832  MEMB      12              0.0000000000
      1667        18  POPC      H6X            11.3297017671       16.7689473738        9.7001932362  MEMB      12              0.0000000000
      1668        18  POPC      H6Y            12.6851856733       15.9100762087       10.4976805589  MEMB      12              0.0000000000
      1669        18  POPC      C37            13.2134515916       17.0508731170        8.7011293727  MEMB      12              0.0000000000
      1670        18  POPC      H7X            14.2978986551       16.9335175869        8.9146553772  MEMB      12              0.0000000000
      1671        18  POPC      H7Y            13.0555417803       18.0988837349        8.3532052501  MEMB      12              0.0000000000
      1672        18  POPC      C38            12.7878514815       16.1127218091        7.5594272893  MEMB      12              0.0000000000
      1673        18  POPC      H8X            13.2773344321       16.4610498008        6.6220338537  MEMB      12              0.0000000000
      1674        18  POPC      H8Y            11.6876918522       16.1977342831        7.4134847303  MEMB      12              0.0000000000
      1675        18  POPC      C39            13.1573035402       14.6417257229        7.7975802457  MEMB      12              0.0000000000
      1676        18  POPC      H9X            12.8024889459       14.3348680127        8.8053735359  MEMB      12              0.0000000000
      1677        18  POPC      H9Y            14.2648365664       14.5464898985        7.7839522970  MEMB      12              0.0000000000
      1678        18  POPC      C310           12.5652144988       13.6669262669        6.7665400791  MEMB      12              0.0000000000
      1679        18  POPC      H10X           11.4536890606       13.6959325664        6.8286293798  MEMB      12              0.0000000000
      1680        18  POPC      H10Y           12.8901445290       12.6352755055        7.0302713659  MEMB      12              0.0000000000
      1681        18  POPC      C311           12.9918617969       13.9725354283        5.3247110497  MEMB      12              0.0000000000
      1682        18  POPC      H11X           14.1004042229       14.0417354578        5.2726866868  MEMB      12              0.0000000000
      1683        18  POPC      H11Y           12.5716037248       14.9616402825        5.0388009244  MEMB      12              0.0000000000
      1684        18  POPC      C312           12.5160285329       12.9084732311        4.3265708179  MEMB      12              0.0000000000
      1685        18  POPC      H12X           11.4365333170       12.7042822221        4.5095151335  MEMB      12              0.0000000000
      1686        18  POPC      H12Y           13.0741971288       11.9624905504        4.5117772557  MEMB      12              0.0000000000
      1687        18  POPC      C313           12.6859688335       13.3196318254        2.8533438458  MEMB      12              0.0000000000
      1688        18  POPC      H13X           12.3686943944       12.4584420570        2.2222054374  MEMB      12              0.0000000000
      1689        18  POPC      H13Y           13.7567339485       13.5223871180        2.6319121929  MEMB      12              0.0000000000
      1690        18  POPC      C314           11.8385466404       14.5447965556        2.4699712068  MEMB      12              0.0000000000
      1691        18  POPC      H14X           12.2770294802       15.4709955049        2.9002491534  MEMB      12              0.0000000000
      1692        18  POPC      H14Y           10.8342814863       14.4123964711        2.9301244384  MEMB      12              0.0000000000
      1693        18  POPC      C315           11.6584068505       14.7207357360        0.9548649585  MEMB      12              0.0000000000
      1694        18  POPC      H15X           10.6767178227       15.2138845467        0.7635457405  MEMB      12              0.0000000000
      1695        18  POPC      H15Y           11.6205498563       13.7205241216        0.4730874753  MEMB      12              0.0000000000
      1696        18  POPC      C316           12.7550537814       15.5562351235        0.2936153417  MEMB      12              0.0000000000
      1697        18  POPC      H16X           12.7863332971       16.5781270677        0.7273615787  MEMB      12              0.0000000000
      1698        18  POPC      H16Y           12.5746229065       15.6407936736       -0.7996203769  MEMB      12              0.0000000000
      1699        18  POPC      H16Z           13.7435723007       15.0775809370        0.4482716198  MEMB      12              0.0000000000
      1700        19  POPS      N               4.9121759882       16.9388549852       19.2597024825  MEMB      13              0.0000000000
      1701        19  POPS      HN1             5.7602090308       17.5484980577       19.2940964504  MEMB      13              0.0000000000
      1702        19  POPS      HN2             5.2329871304       15.9601304980       19.4685194657  MEMB      13              0.0000000000
      1703        19  POPS      HN3             4.4169064246       16.9789432239       18.3498163420  MEMB      13              0.0000000000
      1704        19  POPS      C12             3.9347422602       17.3165068196       20.3531345052  MEMB      13              0.0000000000
      1705        19  POPS      H12A            4.0895958652       18.3458311576       20.6395870086  MEMB      13              0.0000000000
      1706        19  POPS      C13             4.1180193687       16.4179083962       21.5752661503  MEMB      13              0.0000000000
      1707        19  POPS      O13A            4.7737237453       15.3495972842       21.4684893422  MEMB      13              0.0000000000
      1708        19  POPS      O13B            3.5224595817       16.7572128601       22.6321965516  MEMB      13              0.0000000000
      1709        19  POPS      C11             2.4345587915       17.0527118654       19.9949565360  MEMB      13              0.0000000000
      1710        19  POPS      H11A            1.8564236391       17.0828152525       20.9563849335  MEMB      13              0.0000000000
      1711        19  POPS      H11B            2.3089543072       16.0208404967       19.5887007589  MEMB      13              0.0000000000
      1712        19  POPS      P               0.2953227880       17.9349760725       18.8973320910  MEMB      13              0.0000000000
      1713        19  POPS      O13            -0.1784431876       19.2218694673       18.3449678670  MEMB      13              0.0000000000
      1714        19  POPS      O14            -0.3364406159       17.4393141846       20.1409163005  MEMB      13              0.0000000000
      1715        19  POPS      O12             1.8900774537       18.0320370082       19.1076418839  MEMB      13              0.0000000000
      1716        19  POPS      O11             0.2486499576       16.7950261833       17.8029974870  MEMB      13              0.0000000000
      1717        19  POPS      C1              1.2967530615       16.6313684193       16.8417161009  MEMB      13              0.0000000000
      1718        19  POPS      HA              2.1305992682       16.0618908969       17.3006976532  MEMB      13              0.0000000000
      1719        19  POPS      HB              1.6778131930       17.6055622558       16.4516782779  MEMB      13              0.0000000000
      1720        19  POPS      C2              0.7068163209       15.8335190771       15.6629311580  MEMB      13              0.0000000000
      1721        19  POPS      HS              0.1583070249       14.9652509494       16.1003300611  MEMB      13              0.0000000000
      1722        19  POPS      O21             1.7039464051       15.3692043807       14.7098660384  MEMB      13              0.0000000000
      1723        19  POPS      C21             2.3996229404       14.2850672392       15.0880880326  MEMB      13              0.0000000000
      1724        19  POPS      O22             2.4148595094       13.8302397694       16.2162600810  MEMB      13              0.0000000000
      1725        19  POPS      C22             3.1135743272       13.6156251080       13.9114278753  MEMB      13              0.0000000000
      1726        19  POPS      H2R             2.4118380495       12.9348074624       13.3977899595  MEMB      13              0.0000000000
      1727        19  POPS      H2S             3.9113203369       12.9896359132       14.3642748026  MEMB      13              0.0000000000
      1728        19  POPS      C3             -0.3644665011       16.7191765201       14.9358991682  MEMB      13              0.0000000000
      1729        19  POPS      HX             -1.1529939831       16.9026265591       15.7066028175  MEMB      13              0.0000000000
      1730        19  POPS      HY             -0.8080465140       16.1262441612       14.1095696139  MEMB      13              0.0000000000
      1731        19  POPS      O31             0.1620142547       17.9600537755       14.4118467285  MEMB      13              0.0000000000
      1732        19  POPS      C31            -0.7491287021       18.9302822827       14.2308679831  MEMB      13              0.0000000000
      1733        19  POPS      O32            -1.9238702235       18.8505013697       14.5289310631  MEMB      13              0.0000000000
      1734        19  POPS      C32            -0.0519516242       20.0777834225       13.4847836150  MEMB      13              0.0000000000
      1735        19  POPS      H2X             1.0461243804       19.9559188400       13.5934435011  MEMB      13              0.0000000000
      1736        19  POPS      H2Y            -0.3493581445       21.0188872410       13.9946372112  MEMB      13              0.0000000000
      1737        19  POPS      C23             3.8326581600       14.5433328313       12.9059188435  MEMB      13              0.0000000000
      1738        19  POPS      H3R             4.6958203597       13.9623647280       12.4969096476  MEMB      13              0.0000000000
      1739        19  POPS      H3S             4.2487207556       15.4439973581       13.4011625000  MEMB      13              0.0000000000
      1740        19  POPS      C24             2.9660753734       14.9546922900       11.7157572188  MEMB      13              0.0000000000
      1741        19  POPS      H4R             2.3308942384       15.8211605057       12.0081136091  MEMB      13              0.0000000000
      1742        19  POPS      H4S             2.2892576392       14.1167165496       11.4392185744  MEMB      13              0.0000000000
      1743        19  POPS      C25             3.8153949562       15.3086292368       10.4881670527  MEMB      13              0.0000000000
      1744        19  POPS      H5R             4.3134087614       14.3875622702       10.1079167302  MEMB      13              0.0000000000
      1745        19  POPS      H5S             4.6164828044       16.0266338082       10.7806464025  MEMB      13              0.0000000000
      1746        19  POPS      C26             2.9737618560       15.9341835013        9.3731324681  MEMB      13              0.0000000000
      1747        19  POPS      H6R             2.5982577849       16.9182629149        9.7323409417  MEMB      13              0.0000000000
      1748        19  POPS      H6S             2.0902581066       15.2879603115        9.1704632509  MEMB      13              0.0000000000
      1749        19  POPS      C27             3.7674072175       16.1249075536        8.0741439024  MEMB      13              0.0000000000
      1750        19  POPS      H7R             4.0725759465       15.1202760596        7.7023018133  MEMB      13              0.0000000000
      1751        19  POPS      H7S             4.6959498759       16.7031982432        8.2842811597  MEMB      13              0.0000000000
      1752        19  POPS      C28             2.9555915989       16.8254303204        6.9719729690  MEMB      13              0.0000000000
      1753        19  POPS      H8R             1.9814238969       16.3071226074        6.8853537448  MEMB      13              0.0000000000
      1754        19  POPS      H8S             3.4627468933       16.6646472333        5.9980988171  MEMB      13              0.0000000000
      1755        19  POPS      C29             2.7345272786       18.2915410265        7.2475956255  MEMB      13              0.0000000000
      1756        19  POPS      H91             2.0293451821       18.5049723823        8.0626995015  MEMB      13              0.0000000000
      1757        19  POPS      C210            3.3219300927       19.3293878393        6.6297601247  MEMB      13              0.0000000000
      1758        19  POPS      H101            3.0338104870       20.3489195704        6.9277449386  MEMB      13              0.0000000000
      1759        19  POPS      C211            4.3385714882       19.2570606329        5.5210081677  MEMB      13              0.0000000000
      1760        19  POPS      H11R            4.6099214776       18.2139885897        5.2510904194  MEMB      13              0.0000000000
      1761        19  POPS      H11S            5.2772547364       19.7206369987        5.8907610047  MEMB      13              0.0000000000
      1762        19  POPS      C212            3.9065754898       19.9789024902        4.2293008479  MEMB      13              0.0000000000
      1763        19  POPS      H12R            4.8242307952       20.1175725794        3.6140837749  MEMB      13              0.0000000000
      1764        19  POPS      H12S            3.5147719052       20.9960819974        4.4459491272  MEMB      13              0.0000000000
      1765        19  POPS      C213            2.9073245162       19.1858102805        3.3699135340  MEMB      13              0.0000000000
      1766        19  POPS      H13R            3.1121694977       18.0958605386        3.4565798423  MEMB      13              0.0000000000
      1767        19  POPS      H13S            3.0615234042       19.4691112957        2.3028219963  MEMB      13              0.0000000000
      1768        19  POPS      C214            1.4399591508       19.4708027221        3.7142729259  MEMB      13              0.0000000000
      1769        19  POPS      H14R            1.2711115742       20.5679363760        3.6423645983  MEMB      13              0.0000000000
      1770        19  POPS      H14S            1.2279481044       19.1580730843        4.7601580688  MEMB      13              0.0000000000
      1771        19  POPS      C215            0.4707619879       18.7351851842        2.7781290027  MEMB      13              0.0000000000
      1772        19  POPS      H15R            0.6369464167       17.6406794108        2.8927532363  MEMB      13              0.0000000000
      1773        19  POPS      H15S            0.7077557185       19.0027920293        1.7250250468  MEMB      13              0.0000000000
      1774        19  POPS      C216           -1.0121274130       19.0233102577        3.0615980059  MEMB      13              0.0000000000
      1775        19  POPS      H16R           -1.2595712475       18.6123891155        4.0660505460  MEMB      13              0.0000000000
      1776        19  POPS      H16S           -1.6275839457       18.4750827077        2.3129484866  MEMB      13              0.0000000000
      1777        19  POPS      C217           -1.3998021691       20.5095027922        3.0384400940  MEMB      13              0.0000000000
      1778        19  POPS      H17R           -0.8947023978       21.0311585731        3.8820899977  MEMB      13              0.0000000000
      1779        19  POPS      H17S           -2.4931858840       20.5779620199        3.2273008774  MEMB      13              0.0000000000
      1780        19  POPS      C218           -1.0817974130       21.2422278877        1.7323663822  MEMB      13              0.0000000000
      1781        19  POPS      H18R           -1.3824903062       22.3083579201        1.8053875752  MEMB      13              0.0000000000
      1782        19  POPS      H18S           -1.6398215837       20.7872032643        0.8871474033  MEMB      13              0.0000000000
      1783        19  POPS      H18T            0.0053795800       21.2022968538        1.5066344559  MEMB      13              0.0000000000
      1784        19  POPS      C33            -0.4221132221       20.1632163555       11.9772234949  MEMB      13              0.0000000000
      1785        19  POPS      H3X             0.1180343200       21.0358648777       11.5416624607  MEMB      13              0.0000000000
      1786        19  POPS      H3Y            -1.5122468428       20.3700891178       11.8848058021  MEMB      13              0.0000000000
      1787        19  POPS      C34            -0.0701945484       18.9163652800       11.1367468343  MEMB      13              0.0000000000
      1788        19  POPS      H4X            -0.6891536490       18.0604900119       11.4912030856  MEMB      13              0.0000000000
      1789        19  POPS      H4Y             0.9964114408       18.6371733767       11.2835380410  MEMB      13              0.0000000000
      1790        19  POPS      C35            -0.3312477355       19.1202615747        9.6285828202  MEMB      13              0.0000000000
      1791        19  POPS      H5X             0.4992272813       19.7154591551        9.1923681530  MEMB      13              0.0000000000
      1792        19  POPS      H5Y            -1.2597878543       19.7253273790        9.5179282083  MEMB      13              0.0000000000
      1793        19  POPS      C36            -0.5252598518       17.8146005345        8.8274694459  MEMB      13              0.0000000000
      1794        19  POPS      H6X            -1.3312233984       17.2259567884        9.3208531041  MEMB      13              0.0000000000
      1795        19  POPS      H6Y             0.3952526438       17.1951099624        8.8624380861  MEMB      13              0.0000000000
      1796        19  POPS      C37            -0.9206519148       18.0736452864        7.3579640979  MEMB      13              0.0000000000
      1797        19  POPS      H7X            -0.0564901725       18.4725408007        6.7859257566  MEMB      13              0.0000000000
      1798        19  POPS      H7Y            -1.7041672144       18.8675558332        7.3563979360  MEMB      13              0.0000000000
      1799        19  POPS      C38            -1.5091210641       16.8522985008        6.6232135547  MEMB      13              0.0000000000
      1800        19  POPS      H8X            -2.0042609915       17.2010867025        5.6884370038  MEMB      13              0.0000000000
      1801        19  POPS      H8Y            -2.2846201222       16.3821621015        7.2586772133  MEMB      13              0.0000000000
      1802        19  POPS      C39            -0.5159125693       15.7451607878        6.2602348422  MEMB      13              0.0000000000
      1803        19  POPS      H9X            -0.0208603302       15.3826227371        7.1885051875  MEMB      13              0.0000000000
      1804        19  POPS      H9Y             0.2632808667       16.1591435451        5.5831235474  MEMB      13              0.0000000000
      1805        19  POPS      C310           -1.2223739869       14.5623024160        5.5767588391  MEMB      13              0.0000000000
      1806        19  POPS      H10X           -1.6504605954       14.9053918359        4.6099170932  MEMB      13              0.0000000000
      1807        19  POPS      H10Y           -2.0824646430       14.2552121899        6.2058760935  MEMB      13              0.0000000000
      1808        19  POPS      C311           -0.3209097568       13.3376325898        5.3428467946  MEMB      13              0.0000000000
      1809        19  POPS      H11X           -0.9205932018       12.5448806679        4.8385337011  MEMB      13              0.0000000000
      1810        19  POPS      H11Y            0.0071074475       12.9292402323        6.3250117302  MEMB      13              0.0000000000
      1811        19  POPS      C312            0.9200551015       13.6374009861        4.4910759766  MEMB      13              0.0000000000
      1812        19  POPS      H12X            1.4576971298       12.6853013040        4.2818767655  MEMB      13              0.0000000000
      1813        19  POPS      H12Y            1.6128038107       14.2948174526        5.0644733522  MEMB      13              0.0000000000
      1814        19  POPS      C313            0.5870944821       14.3281173844        3.1617580819  MEMB      13              0.0000000000
      1815        19  POPS      H13X            0.1016917125       15.3105892972        3.3524158939  MEMB      13              0.0000000000
      1816        19  POPS      H13Y           -0.1286617854       13.6904075510        2.5972200075  MEMB      13              0.0000000000
      1817        19  POPS      C314            1.8371269366       14.5668698665        2.3156364072  MEMB      13              0.0000000000
      1818        19  POPS      H14X            2.2263754221       13.5800561573        1.9807492116  MEMB      13              0.0000000000
      1819        19  POPS      H14Y            2.6148060546       15.0381789042        2.9552974707  MEMB      13              0.0000000000
      1820        19  POPS      C315            1.6176868245       15.4791119344        1.1000347057  MEMB      13              0.0000000000
      1821        19  POPS      H15X            2.4486941168       15.2773621818        0.3959560884  MEMB      13              0.0000000000
      1822        19  POPS      H15Y            1.7122386012       16.5419885640        1.4123593400  MEMB      13              0.0000000000
      1823        19  POPS      C316            0.2929823934       15.2994121950        0.3601792581  MEMB      13              0.0000000000
      1824        19  POPS      H16X           -0.5444659188       15.7230569427        0.9552821832  MEMB      13              0.0000000000
      1825        19  POPS      H16Y            0.0946224517       14.2230592853        0.1724602803  MEMB      13              0.0000000000
      1826        19  POPS      H16Z            0.3242516187       15.8256094069       -0.6175753531  MEMB      13              0.0000000000
      1827        20  POPC      N               3.1461474469      -14.6062529996       19.6030386081  MEMB      14              0.0000000000
      1828        20  POPC      C12             4.2763492147      -14.4885458613       18.5863142356  MEMB      14              0.0000000000
      1829        20  POPC      H12A            5.0262092397      -13.8297274078       19.0042624991  MEMB      14              0.0000000000
      1830        20  POPC      H12B            3.8927493111      -14.0569607647       17.6730424183  MEMB      14              0.0000000000
      1831        20  POPC      C13             2.2456373356      -15.7301417963       19.2012537394  MEMB      14              0.0000000000
      1832        20  POPC      H13A            1.8598742529      -15.5886729147       18.2088721183  MEMB      14              0.0000000000
      1833        20  POPC      H13B            2.8068490489      -16.6727456897       19.1939317082  MEMB      14              0.0000000000
      1834        20  POPC      H13C            1.4340288905      -15.8484006459       19.9049615596  MEMB      14              0.0000000000
      1835        20  POPC      C14             3.7371626998      -14.9950681757       20.9183421217  MEMB      14              0.0000000000
      1836        20  POPC      H14A            4.3743295265      -15.8731112300       20.7506128989  MEMB      14              0.0000000000
      1837        20  POPC      H14B            4.4193155740      -14.2538951248       21.3148762557  MEMB      14              0.0000000000
      1838        20  POPC      H14C            2.9785692999      -15.2700454970       21.6321590387  MEMB      14              0.0000000000
      1839        20  POPC      C15             2.3435752599      -13.3599182939       19.7624359760  MEMB      14              0.0000000000
      1840        20  POPC      H15A            1.5915532359      -13.4658583649       20.5420701902  MEMB      14              0.0000000000
      1841        20  POPC      H15B            1.8148533194      -13.1334655570       18.8514431799  MEMB      14              0.0000000000
      1842        20  POPC      H15C            2.9498085255      -12.4934296465       20.0335702024  MEMB      14              0.0000000000
      1843        20  POPC      C11             4.9997535870      -15.7972532547       18.1519451988  MEMB      14              0.0000000000
      1844        20  POPC      H11A            5.9060661673      -15.5382713327       17.5583846622  MEMB      14              0.0000000000
      1845        20  POPC      H11B            4.3241832016      -16.3483378256       17.4515924216  MEMB      14              0.0000000000
      1846        20  POPC      P               5.1160262601      -18.1415837859       19.3178448111  MEMB      14              0.0000000000
      1847        20  POPC      O13             3.7881857853      -18.3679339345       18.7168848753  MEMB      14              0.0000000000
      1848        20  POPC      O14             5.3272526626      -18.5807372856       20.7175674472  MEMB      14              0.0000000000
      1849        20  POPC      O12             5.3939861385      -16.5752741334       19.2796316413  MEMB      14              0.0000000000
      1850        20  POPC      O11             6.2738808320      -18.6406710726       18.3607219320  MEMB      14              0.0000000000
      1851        20  POPC      C1              7.6387626812      -18.6123113941       18.7987110394  MEMB      14              0.0000000000
      1852        20  POPC      HA              7.9240076460      -19.6383454292       19.1291802178  MEMB      14              0.0000000000
      1853        20  POPC      HB              7.7913467958      -17.9323509940       19.6711613457  MEMB      14              0.0000000000
      1854        20  POPC      C2              8.6595750700      -18.1524322122       17.7015862592  MEMB      14              0.0000000000
      1855        20  POPC      HS              9.6567302268      -18.1771935723       18.1765326098  MEMB      14              0.0000000000
      1856        20  POPC      O21             8.3651841316      -16.8075677977       17.2811578996  MEMB      14              0.0000000000
      1857        20  POPC      C21             9.3381473748      -16.1349594896       16.6443887434  MEMB      14              0.0000000000
      1858        20  POPC      O22            10.4467502346      -16.5650515112       16.3887148332  MEMB      14              0.0000000000
      1859        20  POPC      C22             8.7923645362      -14.7724323560       16.2043596266  MEMB      14              0.0000000000
      1860        20  POPC      H2R             9.6704053052      -14.1105215589       16.0661618228  MEMB      14              0.0000000000
      1861        20  POPC      H2S             8.1440691066      -14.3826214808       17.0131408158  MEMB      14              0.0000000000
      1862        20  POPC      C3              8.6861774190      -19.1116951531       16.4742019427  MEMB      14              0.0000000000
      1863        20  POPC      HX              8.8549895809      -20.1348646609       16.8784624309  MEMB      14              0.0000000000
      1864        20  POPC      HY              9.5748864471      -18.8660382086       15.8455835720  MEMB      14              0.0000000000
      1865        20  POPC      O31             7.4453734976      -19.1170437753       15.7386916510  MEMB      14              0.0000000000
      1866        20  POPC      C31             7.3911555124      -18.3355531670       14.6821943681  MEMB      14              0.0000000000
      1867        20  POPC      O32             8.3312955529      -17.7484759101       14.1804678797  MEMB      14              0.0000000000
      1868        20  POPC      C32             5.9535578824      -18.2124828792       14.2354124700  MEMB      14              0.0000000000
      1869        20  POPC      H2X             5.5279021693      -17.2961875128       14.6903911192  MEMB      14              0.0000000000
      1870        20  POPC      H2Y             5.3797199530      -19.0821111444       14.6142251331  MEMB      14              0.0000000000
      1871        20  POPC      C23             8.0305500929      -14.9789178029       14.8816796715  MEMB      14              0.0000000000
      1872        20  POPC      H3R             7.2332143726      -15.7357703020       15.0706720009  MEMB      14              0.0000000000
      1873        20  POPC      H3S             8.7386247815      -15.3941106234       14.1257196638  MEMB      14              0.0000000000
      1874        20  POPC      C24             7.3175412034      -13.7979255800       14.2403851348  MEMB      14              0.0000000000
      1875        20  POPC      H4R             8.0347554243      -12.9868473378       13.9916802037  MEMB      14              0.0000000000
      1876        20  POPC      H4S             6.5483810265      -13.4226107841       14.9401101121  MEMB      14              0.0000000000
      1877        20  POPC      C25             6.6220788916      -14.2651927828       12.9548440081  MEMB      14              0.0000000000
      1878        20  POPC      H5R             5.8469568760      -15.0262471489       13.1998704431  MEMB      14              0.0000000000
      1879        20  POPC      H5S             7.3807897005      -14.7694066898       12.3120296983  MEMB      14              0.0000000000
      1880        20  POPC      C26             5.9862083939      -13.1287341938       12.1553677899  MEMB      14              0.0000000000
      1881        20  POPC      H6R             6.7793834687      -12.3920995512       11.8996795568  MEMB      14              0.0000000000
      1882        20  POPC      H6S             5.2169591189      -12.6140545425       12.7727468723  MEMB      14              0.0000000000
      1883        20  POPC      C27             5.3231357401      -13.6405937696       10.8699358639  MEMB      14              0.0000000000
      1884        20  POPC      H7R             4.4531874751      -14.2731769473       11.1604439616  MEMB      14              0.0000000000
      1885        20  POPC      H7S             6.0298849625      -14.3006257732       10.3164318000  MEMB      14              0.0000000000
      1886        20  POPC      C28             4.8360675721      -12.5053106816        9.9537880132  MEMB      14              0.0000000000
      1887        20  POPC      H8R             4.2592188790      -11.7726355143       10.5591905764  MEMB      14              0.0000000000
      1888        20  POPC      H8S             4.1133297603      -12.9418533867        9.2287105737  MEMB      14              0.0000000000
      1889        20  POPC      C29             5.9856543653      -11.8141484104        9.2570407287  MEMB      14              0.0000000000
      1890        20  POPC      H91             6.6704369241      -11.2596019949        9.9179250854  MEMB      14              0.0000000000
      1891        20  POPC      C210            6.2363149270      -11.8439045448        7.9353719120  MEMB      14              0.0000000000
      1892        20  POPC      H101            7.1048629016      -11.2977869427        7.5332113926  MEMB      14              0.0000000000
      1893        20  POPC      C211            5.4029103357      -12.5811605134        6.9193618370  MEMB      14              0.0000000000
      1894        20  POPC      H11R            4.6003105018      -11.9066873692        6.5482798267  MEMB      14              0.0000000000
      1895        20  POPC      H11S            4.9023102268      -13.4706619190        7.3651621265  MEMB      14              0.0000000000
      1896        20  POPC      C212            6.1907417604      -13.0848515548        5.6995944273  MEMB      14              0.0000000000
      1897        20  POPC      H12R            6.5805110468      -12.2210038457        5.1163386443  MEMB      14              0.0000000000
      1898        20  POPC      H12S            5.4784068958      -13.6462529643        5.0558022781  MEMB      14              0.0000000000
      1899        20  POPC      C213            7.3343280253      -14.0437728325        6.0372043164  MEMB      14              0.0000000000
      1900        20  POPC      H13R            6.9820355221      -14.7832259404        6.7926824450  MEMB      14              0.0000000000
      1901        20  POPC      H13S            8.1555617865      -13.4593691082        6.4963817092  MEMB      14              0.0000000000
      1902        20  POPC      C214            7.8622708827      -14.8036243447        4.8131848606  MEMB      14              0.0000000000
      1903        20  POPC      H14R            7.1142917233      -15.5854822108        4.5414868673  MEMB      14              0.0000000000
      1904        20  POPC      H14S            8.8031023738      -15.3289864157        5.0895993972  MEMB      14              0.0000000000
      1905        20  POPC      C215            8.1092835612      -13.9346393919        3.5671486264  MEMB      14              0.0000000000
      1906        20  POPC      H15R            8.8356327373      -13.1254936460        3.7840375015  MEMB      14              0.0000000000
      1907        20  POPC      H15S            7.1551168809      -13.4568086134        3.2545173535  MEMB      14              0.0000000000
      1908        20  POPC      C216            8.6040269598      -14.7963068006        2.4014686097  MEMB      14              0.0000000000
      1909        20  POPC      H16R            7.8588967286      -15.6116193898        2.3031231616  MEMB      14              0.0000000000
      1910        20  POPC      H16S            9.5899174999      -15.2475934798        2.6488264594  MEMB      14              0.0000000000
      1911        20  POPC      C217            8.6845589520      -14.0762641651        1.0537202213  MEMB      14              0.0000000000
      1912        20  POPC      H17R            9.4353309709      -13.2603871063        1.1160227567  MEMB      14              0.0000000000
      1913        20  POPC      H17S            7.6943747468      -13.6094850455        0.8580806361  MEMB      14              0.0000000000
      1914        20  POPC      C218            9.0431033811      -15.0064468188       -0.1123413191  MEMB      14              0.0000000000
      1915        20  POPC      H18R           10.0120925867      -15.5145199711        0.0792987029  MEMB      14              0.0000000000
      1916        20  POPC      H18S            9.1307365144      -14.4306407624       -1.0585817513  MEMB      14              0.0000000000
      1917        20  POPC      H18T            8.2585438062      -15.7819181962       -0.2456319022  MEMB      14              0.0000000000
      1918        20  POPC      C33             5.8286507737      -18.1602932022       12.7062935811  MEMB      14              0.0000000000
      1919        20  POPC      H3X             6.3262939995      -19.0511831822       12.2565879403  MEMB      14              0.0000000000
      1920        20  POPC      H3Y             6.3296692257      -17.2509517589       12.3037136513  MEMB      14              0.0000000000
      1921        20  POPC      C34             4.3471601648      -18.1561651949       12.3277792931  MEMB      14              0.0000000000
      1922        20  POPC      H4X             3.8367454062      -17.3508420499       12.9043987027  MEMB      14              0.0000000000
      1923        20  POPC      H4Y             3.8940342333      -19.1271722614       12.6340068622  MEMB      14              0.0000000000
      1924        20  POPC      C35             4.1036060829      -17.9285641554       10.8383980159  MEMB      14              0.0000000000
      1925        20  POPC      H5X             4.5685425237      -16.9620946758       10.5446889764  MEMB      14              0.0000000000
      1926        20  POPC      H5Y             3.0033391577      -17.8379064321       10.6817131474  MEMB      14              0.0000000000
      1927        20  POPC      C36             4.6290585184      -19.0625507407        9.9464668127  MEMB      14              0.0000000000
      1928        20  POPC      H6X             4.2449367341      -20.0295629839       10.3504508679  MEMB      14              0.0000000000
      1929        20  POPC      H6Y             5.7389117894      -19.1031630296        9.9720542294  MEMB      14              0.0000000000
      1930        20  POPC      C37             4.1477447783      -18.9175959969        8.4958935570  MEMB      14              0.0000000000
      1931        20  POPC      H7X             3.0441858251      -18.8661022814        8.5404059614  MEMB      14              0.0000000000
      1932        20  POPC      H7Y             4.4098135812      -19.8326689980        7.9262734334  MEMB      14              0.0000000000
      1933        20  POPC      C38             4.6941771950      -17.6788501881        7.7659568141  MEMB      14              0.0000000000
      1934        20  POPC      H8X             5.7677881230      -17.8483965650        7.5319238040  MEMB      14              0.0000000000
      1935        20  POPC      H8Y             4.6403225772      -16.7901709484        8.4330984586  MEMB      14              0.0000000000
      1936        20  POPC      C39             3.9349265254      -17.3117922850        6.4773250932  MEMB      14              0.0000000000
      1937        20  POPC      H9X             4.4838460798      -16.4811065265        5.9752546706  MEMB      14              0.0000000000
      1938        20  POPC      H9Y             2.9303911928      -16.9184917838        6.7475369715  MEMB      14              0.0000000000
      1939        20  POPC      C310            3.7604203676      -18.4644497771        5.4782838086  MEMB      14              0.0000000000
      1940        20  POPC      H10X            3.2572368881      -18.0619497707        4.5711736402  MEMB      14              0.0000000000
      1941        20  POPC      H10Y            3.0868052960      -19.2423930131        5.9011511016  MEMB      14              0.0000000000
      1942        20  POPC      C311            5.0929371158      -19.1116298131        5.0823733609  MEMB      14              0.0000000000
      1943        20  POPC      H11X            5.3884527294      -19.8261454791        5.8829263288  MEMB      14              0.0000000000
      1944        20  POPC      H11Y            5.8871172296      -18.3325267573        5.0340534206  MEMB      14              0.0000000000
      1945        20  POPC      C312            5.0410033924      -19.8448642928        3.7368940657  MEMB      14              0.0000000000
      1946        20  POPC      H12X            4.0107255035      -20.1989006170        3.5190024601  MEMB      14              0.0000000000
      1947        20  POPC      H12Y            5.6908121708      -20.7486021279        3.8206332017  MEMB      14              0.0000000000
      1948        20  POPC      C313            5.5886975042      -18.9969597859        2.5782086461  MEMB      14              0.0000000000
      1949        20  POPC      H13X            5.7181488843      -19.6418551887        1.6824569197  MEMB      14              0.0000000000
      1950        20  POPC      H13Y            6.5963953933      -18.6237408722        2.8663459249  MEMB      14              0.0000000000
      1951        20  POPC      C314            4.7320125062      -17.7931442083        2.1686834463  MEMB      14              0.0000000000
      1952        20  POPC      H14X            4.6311306289      -17.0944508820        3.0288066695  MEMB      14              0.0000000000
      1953        20  POPC      H14Y            3.7152599892      -18.1433537032        1.8843958783  MEMB      14              0.0000000000
      1954        20  POPC      C315            5.3685679555      -17.0350237885        0.9942254498  MEMB      14              0.0000000000
      1955        20  POPC      H15X            5.5557556401      -17.7453406780        0.1587901886  MEMB      14              0.0000000000
      1956        20  POPC      H15Y            6.3606364827      -16.6587841409        1.3159612375  MEMB      14              0.0000000000
      1957        20  POPC      C316            4.5346067921      -15.8619270178        0.4839947384  MEMB      14              0.0000000000
      1958        20  POPC      H16X            5.0451940295      -15.3515661285       -0.3601675157  MEMB      14              0.0000000000
      1959        20  POPC      H16Y            4.3692696446      -15.1252739510        1.2982169955  MEMB      14              0.0000000000
      1960        20  POPC      H16Z            3.5461606793      -16.2214893975        0.1266505439  MEMB      14              0.0000000000
      1961        21  POPC      N             -12.3581189207       -8.2618510859       18.1837011229  MEMB      15              0.0000000000
      1962        21  POPC      C12           -11.3839797234       -9.3881769971       18.5263079493  MEMB      15              0.0000000000
      1963        21  POPC      H12A          -10.4340909590       -8.9526619292       18.8104317671  MEMB      15              0.0000000000
      1964        21  POPC      H12B          -11.1928568998       -9.9973125294       17.6466906436  MEMB      15              0.0000000000
      1965        21  POPC      C13           -13.6354018598       -8.8808834207       17.7266354566  MEMB      15              0.0000000000
      1966        21  POPC      H13A          -13.5063145153       -9.4748695272       16.8389071569  MEMB      15              0.0000000000
      1967        21  POPC      H13B          -13.9845563417       -9.5703850208       18.5033448706  MEMB      15              0.0000000000
      1968        21  POPC      H13C          -14.4057636491       -8.1433728529       17.5493712555  MEMB      15              0.0000000000
      1969        21  POPC      C14           -12.6847424581       -7.4424122605       19.3965700818  MEMB      15              0.0000000000
      1970        21  POPC      H14A          -13.1783714539       -8.0568043410       20.1416699627  MEMB      15              0.0000000000
      1971        21  POPC      H14B          -11.8255887599       -6.9511295294       19.8303948935  MEMB      15              0.0000000000
      1972        21  POPC      H14C          -13.3724997145       -6.6199141903       19.1739371950  MEMB      15              0.0000000000
      1973        21  POPC      C15           -11.7775779641       -7.3604310655       17.1316749067  MEMB      15              0.0000000000
      1974        21  POPC      H15A          -12.4124651251       -6.4867846430       16.9843461205  MEMB      15              0.0000000000
      1975        21  POPC      H15B          -11.6760647161       -7.8815817273       16.1868588964  MEMB      15              0.0000000000
      1976        21  POPC      H15C          -10.8101493287       -6.9661525631       17.4404162591  MEMB      15              0.0000000000
      1977        21  POPC      C11           -11.8040644484      -10.3668847407       19.6519820281  MEMB      15              0.0000000000
      1978        21  POPC      H11A          -12.1093804737       -9.7767756030       20.5444554961  MEMB      15              0.0000000000
      1979        21  POPC      H11B          -10.8832090457      -10.9456936793       19.9313735623  MEMB      15              0.0000000000
      1980        21  POPC      P             -13.0725072125      -12.5246471664       20.1784133376  MEMB      15              0.0000000000
      1981        21  POPC      O13           -13.3669844154      -12.0186445708       21.5471613781  MEMB      15              0.0000000000
      1982        21  POPC      O14           -11.8854702784      -13.3891191577       20.0212011877  MEMB      15              0.0000000000
      1983        21  POPC      O12           -12.8833718232      -11.2303452502       19.2477913796  MEMB      15              0.0000000000
      1984        21  POPC      O11           -14.3386755975      -13.3015835591       19.6509913968  MEMB      15              0.0000000000
      1985        21  POPC      C1            -15.0525416997      -12.9937269787       18.4676274974  MEMB      15              0.0000000000
      1986        21  POPC      HA            -15.0448194040      -11.9078686977       18.2182782520  MEMB      15              0.0000000000
      1987        21  POPC      HB            -16.1118506746      -13.2719718626       18.6656157513  MEMB      15              0.0000000000
      1988        21  POPC      C2            -14.6049532449      -13.8096438912       17.2108328853  MEMB      15              0.0000000000
      1989        21  POPC      HS            -14.1062547921      -14.7488190181       17.5511293840  MEMB      15              0.0000000000
      1990        21  POPC      O21           -13.7473707518      -12.9768481705       16.3980987251  MEMB      15              0.0000000000
      1991        21  POPC      C21           -13.1519681184      -13.6574653854       15.4232944996  MEMB      15              0.0000000000
      1992        21  POPC      O22           -12.9711632284      -14.8599231300       15.4232196088  MEMB      15              0.0000000000
      1993        21  POPC      C22           -12.7757592423      -12.7053849724       14.2910733376  MEMB      15              0.0000000000
      1994        21  POPC      H2R           -11.6998613222      -12.4900017907       14.4004134965  MEMB      15              0.0000000000
      1995        21  POPC      H2S           -13.3209450656      -11.7583313247       14.4296860540  MEMB      15              0.0000000000
      1996        21  POPC      C3            -15.8637487876      -14.1559716910       16.3817809554  MEMB      15              0.0000000000
      1997        21  POPC      HX            -16.4378101787      -14.9570587674       16.8514496609  MEMB      15              0.0000000000
      1998        21  POPC      HY            -15.5993392357      -14.5194740207       15.3616231960  MEMB      15              0.0000000000
      1999        21  POPC      O31           -16.6649385865      -12.9715430945       16.4038393705  MEMB      15              0.0000000000
      2000        21  POPC      C31           -17.1930853239      -12.5894732415       15.2795912740  MEMB      15              0.0000000000
      2001        21  POPC      O32           -17.3973636362      -13.2783951044       14.2967714081  MEMB      15              0.0000000000
      2002        21  POPC      C32           -17.3036428413      -11.0752001836       15.3816680196  MEMB      15              0.0000000000
      2003        21  POPC      H2X           -17.3997441080      -10.7697381312       16.4447388347  MEMB      15              0.0000000000
      2004        21  POPC      H2Y           -18.1999441540      -10.7270450906       14.8486862463  MEMB      15              0.0000000000
      2005        21  POPC      C23           -13.0488600099      -13.2670804234       12.8730770813  MEMB      15              0.0000000000
      2006        21  POPC      H3R           -12.6105045654      -14.2810105227       12.7452637860  MEMB      15              0.0000000000
      2007        21  POPC      H3S           -12.5317798253      -12.5968825694       12.1482669599  MEMB      15              0.0000000000
      2008        21  POPC      C24           -14.5385412449      -13.2839534393       12.4813995958  MEMB      15              0.0000000000
      2009        21  POPC      H4R           -15.0330029397      -12.3621764719       12.8456051397  MEMB      15              0.0000000000
      2010        21  POPC      H4S           -15.0461275016      -14.1317608968       12.9850652192  MEMB      15              0.0000000000
      2011        21  POPC      C25           -14.7554188675      -13.3454619240       10.9567092884  MEMB      15              0.0000000000
      2012        21  POPC      H5R           -13.9920148555      -14.0124833756       10.4996033293  MEMB      15              0.0000000000
      2013        21  POPC      H5S           -14.5956030376      -12.3268362899       10.5459208130  MEMB      15              0.0000000000
      2014        21  POPC      C26           -16.1491553899      -13.8297425248       10.5135543779  MEMB      15              0.0000000000
      2015        21  POPC      H6R           -16.8949531092      -13.5547696696       11.2950478808  MEMB      15              0.0000000000
      2016        21  POPC      H6S           -16.1445785149      -14.9379486204       10.4660126698  MEMB      15              0.0000000000
      2017        21  POPC      C27           -16.6518064012      -13.2692078318        9.1605325410  MEMB      15              0.0000000000
      2018        21  POPC      H7R           -17.0872654887      -12.2736882833        9.3902489205  MEMB      15              0.0000000000
      2019        21  POPC      H7S           -17.4931565588      -13.9008372277        8.7998295194  MEMB      15              0.0000000000
      2020        21  POPC      C28           -15.5954369190      -13.0346863263        8.0474505354  MEMB      15              0.0000000000
      2021        21  POPC      H8R           -14.5789053017      -13.1946353026        8.4527651145  MEMB      15              0.0000000000
      2022        21  POPC      H8S           -15.6336878297      -11.9464929206        7.8121696216  MEMB      15              0.0000000000
      2023        21  POPC      C29           -15.7892614577      -13.7816273277        6.7479348977  MEMB      15              0.0000000000
      2024        21  POPC      H91           -16.7840906070      -13.6623699670        6.2911789930  MEMB      15              0.0000000000
      2025        21  POPC      C210          -14.8719768788      -14.5284423777        6.0998555505  MEMB      15              0.0000000000
      2026        21  POPC      H101          -15.1532843690      -14.9986005380        5.1442735099  MEMB      15              0.0000000000
      2027        21  POPC      C211          -13.4470326917      -14.7901558894        6.5306780579  MEMB      15              0.0000000000
      2028        21  POPC      H11R          -13.2136788013      -15.8629761097        6.3737000657  MEMB      15              0.0000000000
      2029        21  POPC      H11S          -13.3159941718      -14.5926910557        7.6184006857  MEMB      15              0.0000000000
      2030        21  POPC      C212          -12.3716793721      -13.9400213662        5.8353688076  MEMB      15              0.0000000000
      2031        21  POPC      H12R          -11.4125030617      -14.0399688836        6.3929054457  MEMB      15              0.0000000000
      2032        21  POPC      H12S          -12.6763314194      -12.8763031432        5.9143777628  MEMB      15              0.0000000000
      2033        21  POPC      C213          -12.1176088307      -14.3083599382        4.3674641792  MEMB      15              0.0000000000
      2034        21  POPC      H13R          -12.9400772071      -14.9644296353        4.0036219493  MEMB      15              0.0000000000
      2035        21  POPC      H13S          -11.1656947941      -14.8773297930        4.2888140668  MEMB      15              0.0000000000
      2036        21  POPC      C214          -12.0371454180      -13.0801689569        3.4521795413  MEMB      15              0.0000000000
      2037        21  POPC      H14R          -12.9820279850      -12.5068477078        3.5740823700  MEMB      15              0.0000000000
      2038        21  POPC      H14S          -11.9758064412      -13.4132660944        2.3937207972  MEMB      15              0.0000000000
      2039        21  POPC      C215          -10.8490392377      -12.1557837392        3.7647266401  MEMB      15              0.0000000000
      2040        21  POPC      H15R           -9.9045364115      -12.6694874682        3.4833229530  MEMB      15              0.0000000000
      2041        21  POPC      H15S          -10.8080891916      -11.9584161054        4.8580542574  MEMB      15              0.0000000000
      2042        21  POPC      C216          -10.9580824705      -10.8033082044        3.0422925808  MEMB      15              0.0000000000
      2043        21  POPC      H16R          -11.9708437690      -10.3834739586        3.2248870179  MEMB      15              0.0000000000
      2044        21  POPC      H16S          -10.8815183437      -10.9692653143        1.9492520911  MEMB      15              0.0000000000
      2045        21  POPC      C217           -9.9311386199       -9.7514535729        3.4971830620  MEMB      15              0.0000000000
      2046        21  POPC      H17R          -10.2469949343       -9.3823332080        4.5007325806  MEMB      15              0.0000000000
      2047        21  POPC      H17S           -9.9833127466       -8.8862964224        2.7965049085  MEMB      15              0.0000000000
      2048        21  POPC      C218           -8.4802357324      -10.2361532181        3.5949426714  MEMB      15              0.0000000000
      2049        21  POPC      H18R           -8.3806638382      -11.0317094299        4.3645687920  MEMB      15              0.0000000000
      2050        21  POPC      H18S           -7.8109462780       -9.3970804332        3.8821544299  MEMB      15              0.0000000000
      2051        21  POPC      H18T           -8.1263635570      -10.6449016424        2.6262429347  MEMB      15              0.0000000000
      2052        21  POPC      C33           -16.0212696632      -10.5111210646       14.7618995537  MEMB      15              0.0000000000
      2053        21  POPC      H3X           -16.0736474939      -10.7445395682       13.6790512437  MEMB      15              0.0000000000
      2054        21  POPC      H3Y           -15.1330270744      -11.0256860380       15.1934342450  MEMB      15              0.0000000000
      2055        21  POPC      C34           -15.8013512899       -9.0197737018       14.9601057276  MEMB      15              0.0000000000
      2056        21  POPC      H4X           -15.6245872245       -8.8195880164       16.0348094459  MEMB      15              0.0000000000
      2057        21  POPC      H4Y           -16.7473703710       -8.4889750364       14.6998034992  MEMB      15              0.0000000000
      2058        21  POPC      C35           -14.6616789989       -8.4304001033       14.0930149986  MEMB      15              0.0000000000
      2059        21  POPC      H5X           -14.0854800527       -7.6923402736       14.6882787356  MEMB      15              0.0000000000
      2060        21  POPC      H5Y           -15.2062877460       -7.8606267985       13.3042985286  MEMB      15              0.0000000000
      2061        21  POPC      C36           -13.6861266818       -9.3860823675       13.3606005307  MEMB      15              0.0000000000
      2062        21  POPC      H6X           -14.2053798329      -10.3186646141       13.0608847334  MEMB      15              0.0000000000
      2063        21  POPC      H6Y           -12.8372601727       -9.6584127767       14.0204107521  MEMB      15              0.0000000000
      2064        21  POPC      C37           -13.1782381380       -8.8201255671       12.0207765645  MEMB      15              0.0000000000
      2065        21  POPC      H7X           -12.3931191038       -8.0531654871       12.1830566062  MEMB      15              0.0000000000
      2066        21  POPC      H7Y           -14.0578439745       -8.3338950808       11.5383000038  MEMB      15              0.0000000000
      2067        21  POPC      C38           -12.6904779850       -9.8711448317       11.0105747871  MEMB      15              0.0000000000
      2068        21  POPC      H8X           -13.5142319851      -10.6077040249       10.8903034503  MEMB      15              0.0000000000
      2069        21  POPC      H8Y           -11.8014532418      -10.4087483198       11.4032266559  MEMB      15              0.0000000000
      2070        21  POPC      C39           -12.3791075976       -9.2715918722        9.6207375143  MEMB      15              0.0000000000
      2071        21  POPC      H9X           -11.2798234113       -9.2670064453        9.4548589361  MEMB      15              0.0000000000
      2072        21  POPC      H9Y           -12.7154313083       -8.2115760815        9.5968409086  MEMB      15              0.0000000000
      2073        21  POPC      C310          -13.0859371920      -10.0090648019        8.4701648415  MEMB      15              0.0000000000
      2074        21  POPC      H10X          -14.1777001139      -10.0585908553        8.6905738638  MEMB      15              0.0000000000
      2075        21  POPC      H10Y          -12.7092809985      -11.0556269974        8.4325538405  MEMB      15              0.0000000000
      2076        21  POPC      C311          -12.9053681350       -9.3566878279        7.0823403008  MEMB      15              0.0000000000
      2077        21  POPC      H11X          -11.8263548725       -9.1657397444        6.8872992963  MEMB      15              0.0000000000
      2078        21  POPC      H11Y          -13.4284436667       -8.3754116258        7.0797696498  MEMB      15              0.0000000000
      2079        21  POPC      C312          -13.4651723256      -10.2509187758        5.9597556243  MEMB      15              0.0000000000
      2080        21  POPC      H12X          -14.1523331989      -10.9856677924        6.4373214565  MEMB      15              0.0000000000
      2081        21  POPC      H12Y          -12.6356961094      -10.8300089837        5.5049385882  MEMB      15              0.0000000000
      2082        21  POPC      C313          -14.2513221579       -9.5427465686        4.8388237182  MEMB      15              0.0000000000
      2083        21  POPC      H13X          -13.5518574715       -9.0534956182        4.1305284276  MEMB      15              0.0000000000
      2084        21  POPC      H13Y          -14.8726917873       -8.7413941845        5.2965658147  MEMB      15              0.0000000000
      2085        21  POPC      C314          -15.1902422597      -10.5226289089        4.0998393500  MEMB      15              0.0000000000
      2086        21  POPC      H14X          -16.2443423715      -10.2038495464        4.2433885298  MEMB      15              0.0000000000
      2087        21  POPC      H14Y          -15.0980614506      -11.5296518346        4.5676687281  MEMB      15              0.0000000000
      2088        21  POPC      C315          -14.9810687416      -10.6809025109        2.5904237451  MEMB      15              0.0000000000
      2089        21  POPC      H15X          -13.9261363819      -10.9622331837        2.3824679446  MEMB      15              0.0000000000
      2090        21  POPC      H15Y          -15.1757958497       -9.7078132683        2.0867893510  MEMB      15              0.0000000000
      2091        21  POPC      C316          -15.9142685310      -11.7566554608        2.0222491193  MEMB      15              0.0000000000
      2092        21  POPC      H16X          -16.9757890041      -11.4340688464        2.0970921156  MEMB      15              0.0000000000
      2093        21  POPC      H16Y          -15.8010034414      -12.7044688672        2.5924970949  MEMB      15              0.0000000000
      2094        21  POPC      H16Z          -15.6783169454      -11.9681684115        0.9627326569  MEMB      15              0.0000000000
      2095        22  POPC      N             -10.2703231863       11.8466607103       19.1743303449  MEMB      16              0.0000000000
      2096        22  POPC      C12           -11.1636820989       12.6364346939       18.2314329136  MEMB      16              0.0000000000
      2097        22  POPC      H12A          -11.7134118607       11.9580296209       17.5855347238  MEMB      16              0.0000000000
      2098        22  POPC      H12B          -10.5264112277       13.2220005126       17.5621522266  MEMB      16              0.0000000000
      2099        22  POPC      C13            -9.8404072961       10.5702368729       18.5271439899  MEMB      16              0.0000000000
      2100        22  POPC      H13A           -9.2586505046       10.7686803509       17.6286836018  MEMB      16              0.0000000000
      2101        22  POPC      H13B           -9.1958883143       10.0009771240       19.1900077111  MEMB      16              0.0000000000
      2102        22  POPC      H13C          -10.6773284509        9.9276194733       18.2744799717  MEMB      16              0.0000000000
      2103        22  POPC      C14            -9.0198639868       12.6193583134       19.4609347035  MEMB      16              0.0000000000
      2104        22  POPC      H14A           -9.2115307683       13.4077560149       20.1843791141  MEMB      16              0.0000000000
      2105        22  POPC      H14B           -8.2243492719       11.9796801427       19.8012440284  MEMB      16              0.0000000000
      2106        22  POPC      H14C           -8.6611282518       13.1162619699       18.5550435935  MEMB      16              0.0000000000
      2107        22  POPC      C15           -10.9987547777       11.6058655292       20.4580065381  MEMB      16              0.0000000000
      2108        22  POPC      H15A          -11.8767000498       11.0117128579       20.2676012025  MEMB      16              0.0000000000
      2109        22  POPC      H15B          -11.3398151569       12.5670426637       20.8588207904  MEMB      16              0.0000000000
      2110        22  POPC      H15C          -10.3608779556       11.1421230426       21.1904202009  MEMB      16              0.0000000000
      2111        22  POPC      C11           -12.1510653217       13.6323107566       18.8912865070  MEMB      16              0.0000000000
      2112        22  POPC      H11A          -12.9118759828       13.0751232389       19.4806054885  MEMB      16              0.0000000000
      2113        22  POPC      H11B          -12.7350641518       14.1872388162       18.1249080445  MEMB      16              0.0000000000
      2114        22  POPC      P             -10.6182170679       15.7174783276       19.1220325010  MEMB      16              0.0000000000
      2115        22  POPC      O13            -9.8668358873       16.3035808733       20.2534799082  MEMB      16              0.0000000000
      2116        22  POPC      O14           -11.5401586613       16.6273623138       18.4248843656  MEMB      16              0.0000000000
      2117        22  POPC      O12           -11.4681007173       14.5363514447       19.7480670863  MEMB      16              0.0000000000
      2118        22  POPC      O11            -9.6358319857       15.0353841189       18.0853258002  MEMB      16              0.0000000000
      2119        22  POPC      C1             -9.3650765836       15.7172445565       16.8612627595  MEMB      16              0.0000000000
      2120        22  POPC      HA             -8.2857625591       15.9664213589       16.8387010092  MEMB      16              0.0000000000
      2121        22  POPC      HB             -9.9298811048       16.6731884039       16.7406504546  MEMB      16              0.0000000000
      2122        22  POPC      C2             -9.7266690225       14.8797743575       15.6119347963  MEMB      16              0.0000000000
      2123        22  POPC      HS             -9.7254648108       15.5555359581       14.7214907934  MEMB      16              0.0000000000
      2124        22  POPC      O21           -10.9765303055       14.1994472933       15.7499641470  MEMB      16              0.0000000000
      2125        22  POPC      C21           -12.0450244911       14.9299551815       15.6109898700  MEMB      16              0.0000000000
      2126        22  POPC      O22           -12.1054457685       16.1442163788       15.5578009035  MEMB      16              0.0000000000
      2127        22  POPC      C22           -13.1939000758       13.9556183557       15.3372298503  MEMB      16              0.0000000000
      2128        22  POPC      H2R           -13.3575475014       13.3538523048       16.2527195190  MEMB      16              0.0000000000
      2129        22  POPC      H2S           -12.8716104373       13.2640208373       14.5318031908  MEMB      16              0.0000000000
      2130        22  POPC      C3             -8.6767978694       13.7875345127       15.3588837326  MEMB      16              0.0000000000
      2131        22  POPC      HX             -8.6847898070       13.0989704645       16.2344209241  MEMB      16              0.0000000000
      2132        22  POPC      HY             -7.6756242067       14.2655939984       15.3117570311  MEMB      16              0.0000000000
      2133        22  POPC      O31            -8.9333895795       13.1177727145       14.1115482938  MEMB      16              0.0000000000
      2134        22  POPC      C31            -9.7643504844       12.0892510720       14.1664909801  MEMB      16              0.0000000000
      2135        22  POPC      O32           -10.2231573505       11.5918756123       15.1836181757  MEMB      16              0.0000000000
      2136        22  POPC      C32           -10.0755117060       11.5575484003       12.7510277642  MEMB      16              0.0000000000
      2137        22  POPC      H2X           -11.1764685180       11.5126351186       12.6435840820  MEMB      16              0.0000000000
      2138        22  POPC      H2Y            -9.6912714290       10.5185169797       12.7270485251  MEMB      16              0.0000000000
      2139        22  POPC      C23           -14.5158796683       14.6384666078       14.9266500356  MEMB      16              0.0000000000
      2140        22  POPC      H3R           -14.7300760292       15.5081540880       15.5851395516  MEMB      16              0.0000000000
      2141        22  POPC      H3S           -15.3113095362       13.8803165004       15.1012238474  MEMB      16              0.0000000000
      2142        22  POPC      C24           -14.5730278184       15.0589560898       13.4458312693  MEMB      16              0.0000000000
      2143        22  POPC      H4R           -15.5882981978       15.4608786209       13.2257748307  MEMB      16              0.0000000000
      2144        22  POPC      H4S           -14.4164934088       14.1695418021       12.7935700970  MEMB      16              0.0000000000
      2145        22  POPC      C25           -13.5303106354       16.1263672247       13.0795610107  MEMB      16              0.0000000000
      2146        22  POPC      H5R           -12.5056051889       15.6933958917       13.1472442448  MEMB      16              0.0000000000
      2147        22  POPC      H5S           -13.5998197485       16.9617871557       13.8154981187  MEMB      16              0.0000000000
      2148        22  POPC      C26           -13.6670289919       16.7194025238       11.6840614276  MEMB      16              0.0000000000
      2149        22  POPC      H6R           -14.6610682786       17.2071905548       11.6093725720  MEMB      16              0.0000000000
      2150        22  POPC      H6S           -13.6110546506       15.9078986134       10.9251540480  MEMB      16              0.0000000000
      2151        22  POPC      C27           -12.5638840563       17.7528036389       11.4107630195  MEMB      16              0.0000000000
      2152        22  POPC      H7R           -11.5727820008       17.2612027164       11.5381627296  MEMB      16              0.0000000000
      2153        22  POPC      H7S           -12.6421124299       18.5573102172       12.1789449194  MEMB      16              0.0000000000
      2154        22  POPC      C28           -12.6763778570       18.3696436964       10.0094237628  MEMB      16              0.0000000000
      2155        22  POPC      H8R           -13.6926813407       18.8119308460        9.9312843516  MEMB      16              0.0000000000
      2156        22  POPC      H8S           -12.6119068443       17.5528642632        9.2553598972  MEMB      16              0.0000000000
      2157        22  POPC      C29           -11.6317973521       19.4306850811        9.7700023612  MEMB      16              0.0000000000
      2158        22  POPC      H91           -11.2247287770       19.9132503724       10.6759341390  MEMB      16              0.0000000000
      2159        22  POPC      C210          -11.1781507431       19.8167042333        8.5637227027  MEMB      16              0.0000000000
      2160        22  POPC      H101          -10.4036717030       20.5928145488        8.5103006912  MEMB      16              0.0000000000
      2161        22  POPC      C211          -11.6204992733       19.2733295881        7.2281770412  MEMB      16              0.0000000000
      2162        22  POPC      H11R          -11.6435761088       20.0862534531        6.4688512873  MEMB      16              0.0000000000
      2163        22  POPC      H11S          -12.6432526343       18.8496724525        7.2832842477  MEMB      16              0.0000000000
      2164        22  POPC      C212          -10.7050437404       18.1415866989        6.7544171274  MEMB      16              0.0000000000
      2165        22  POPC      H12R          -10.7475695076       17.3246487899        7.5128911424  MEMB      16              0.0000000000
      2166        22  POPC      H12S           -9.6531367136       18.5046199753        6.6981668102  MEMB      16              0.0000000000
      2167        22  POPC      C213          -11.0942762044       17.5498279836        5.3916555328  MEMB      16              0.0000000000
      2168        22  POPC      H13R          -12.1733832681       17.2853272046        5.3680727790  MEMB      16              0.0000000000
      2169        22  POPC      H13S          -10.5246811785       16.6006451377        5.2588221908  MEMB      16              0.0000000000
      2170        22  POPC      C214          -10.7400337734       18.4712192595        4.2173292076  MEMB      16              0.0000000000
      2171        22  POPC      H14R           -9.7439729456       18.9341701758        4.4119315753  MEMB      16              0.0000000000
      2172        22  POPC      H14S          -11.4836607350       19.2941817892        4.1365961410  MEMB      16              0.0000000000
      2173        22  POPC      C215          -10.6481932905       17.7029986511        2.8942660037  MEMB      16              0.0000000000
      2174        22  POPC      H15R          -11.6137806736       17.1940099585        2.6848588316  MEMB      16              0.0000000000
      2175        22  POPC      H15S           -9.8688707788       16.9186913065        3.0079611440  MEMB      16              0.0000000000
      2176        22  POPC      C216          -10.2571963655       18.6040371860        1.7178324426  MEMB      16              0.0000000000
      2177        22  POPC      H16R           -9.3933704528       19.2280414697        2.0284221160  MEMB      16              0.0000000000
      2178        22  POPC      H16S          -11.1041787321       19.2862948755        1.4820360428  MEMB      16              0.0000000000
      2179        22  POPC      C217           -9.8422183122       17.8309540661        0.4596557598  MEMB      16              0.0000000000
      2180        22  POPC      H17R           -8.8759068272       17.3126269600        0.6567100268  MEMB      16              0.0000000000
      2181        22  POPC      H17S           -9.6574609038       18.5633659919       -0.3597295024  MEMB      16              0.0000000000
      2182        22  POPC      C218          -10.8737059962       16.8029039350       -0.0032493517  MEMB      16              0.0000000000
      2183        22  POPC      H18R          -10.5804588588       16.3999429164       -0.9963472822  MEMB      16              0.0000000000
      2184        22  POPC      H18S          -11.8771373091       17.2707014613       -0.0907383398  MEMB      16              0.0000000000
      2185        22  POPC      H18T          -10.9475601385       15.9565293894        0.7133141726  MEMB      16              0.0000000000
      2186        22  POPC      C33            -9.4499605211       12.3178706172       11.5448970010  MEMB      16              0.0000000000
      2187        22  POPC      H3X            -9.4082496423       11.6182572853       10.6779242426  MEMB      16              0.0000000000
      2188        22  POPC      H3Y            -8.3977592585       12.5971511644       11.7782023831  MEMB      16              0.0000000000
      2189        22  POPC      C34           -10.2452120363       13.5567543882       11.0967240772  MEMB      16              0.0000000000
      2190        22  POPC      H4X            -9.6207507461       14.1763776990       10.4133697312  MEMB      16              0.0000000000
      2191        22  POPC      H4Y           -10.4624209316       14.1740235907       11.9982022369  MEMB      16              0.0000000000
      2192        22  POPC      C35           -11.5712209160       13.2447646351       10.3784465447  MEMB      16              0.0000000000
      2193        22  POPC      H5X           -12.2146449991       14.1531548607       10.4366031898  MEMB      16              0.0000000000
      2194        22  POPC      H5Y           -12.1095301855       12.4284519119       10.9054914209  MEMB      16              0.0000000000
      2195        22  POPC      C36           -11.4136412637       12.8871471910        8.8908799279  MEMB      16              0.0000000000
      2196        22  POPC      H6X           -10.6889070558       12.0513526762        8.7734854021  MEMB      16              0.0000000000
      2197        22  POPC      H6Y           -11.0086878487       13.7713107826        8.3483532429  MEMB      16              0.0000000000
      2198        22  POPC      C37           -12.7545898268       12.4768857936        8.2654304523  MEMB      16              0.0000000000
      2199        22  POPC      H7X           -13.5043628353       13.2816782460        8.4251439093  MEMB      16              0.0000000000
      2200        22  POPC      H7Y           -13.1231618160       11.5762241451        8.8089992232  MEMB      16              0.0000000000
      2201        22  POPC      C38           -12.6820061172       12.1318793179        6.7694606052  MEMB      16              0.0000000000
      2202        22  POPC      H8X           -13.6314803751       11.6244255116        6.4893476355  MEMB      16              0.0000000000
      2203        22  POPC      H8Y           -11.8606921024       11.4070335565        6.5847572688  MEMB      16              0.0000000000
      2204        22  POPC      C39           -12.5427151679       13.3468491138        5.8424547702  MEMB      16              0.0000000000
      2205        22  POPC      H9X           -11.4973037913       13.7232939051        5.8779508907  MEMB      16              0.0000000000
      2206        22  POPC      H9Y           -13.1968159979       14.1647770838        6.2177530463  MEMB      16              0.0000000000
      2207        22  POPC      C310          -12.9537761412       13.0324697717        4.3906936967  MEMB      16              0.0000000000
      2208        22  POPC      H10X          -12.7967375730       13.9471954821        3.7757830970  MEMB      16              0.0000000000
      2209        22  POPC      H10Y          -14.0412448004       12.7925899310        4.3674205801  MEMB      16              0.0000000000
      2210        22  POPC      C311          -12.1923432891       11.8599972149        3.7458125638  MEMB      16              0.0000000000
      2211        22  POPC      H11X          -12.5407483794       11.7489138275        2.6942171901  MEMB      16              0.0000000000
      2212        22  POPC      H11Y          -12.4251915627       10.9098774442        4.2746024142  MEMB      16              0.0000000000
      2213        22  POPC      C312          -10.6791713478       12.0881858442        3.7561433051  MEMB      16              0.0000000000
      2214        22  POPC      H12X          -10.3174563265       12.1351486537        4.8080812011  MEMB      16              0.0000000000
      2215        22  POPC      H12Y          -10.5077125950       13.0824486115        3.2941795525  MEMB      16              0.0000000000
      2216        22  POPC      C313           -9.8415313032       11.0396714020        3.0096681286  MEMB      16              0.0000000000
      2217        22  POPC      H13X          -10.0880481221       10.0195259481        3.3747662381  MEMB      16              0.0000000000
      2218        22  POPC      H13Y           -8.7708653240       11.2317193271        3.2537146108  MEMB      16              0.0000000000
      2219        22  POPC      C314           -9.9953687198       11.1039736835        1.4843601503  MEMB      16              0.0000000000
      2220        22  POPC      H14X          -10.1229069833       12.1675824069        1.1760175360  MEMB      16              0.0000000000
      2221        22  POPC      H14Y          -10.9222541715       10.5614209897        1.1969287699  MEMB      16              0.0000000000
      2222        22  POPC      C315           -8.7899540107       10.5394946996        0.7119171018  MEMB      16              0.0000000000
      2223        22  POPC      H15X           -7.9756352365       11.3002789654        0.7256342155  MEMB      16              0.0000000000
      2224        22  POPC      H15Y           -9.0914268225       10.4006648473       -0.3520080352  MEMB      16              0.0000000000
      2225        22  POPC      C316           -8.2241185556        9.2261515611        1.2604238173  MEMB      16              0.0000000000
      2226        22  POPC      H16X           -7.7192134902        9.3954625453        2.2360786218  MEMB      16              0.0000000000
      2227        22  POPC      H16Y           -7.4774575266        8.7983640593        0.5572653179  MEMB      16              0.0000000000
      2228        22  POPC      H16Z           -9.0333471900        8.4826350246        1.4126359501  MEMB      16              0.0000000000
      2229        23  POPC      N             -16.0777285890        5.6661544825       21.1106855877  MEMB      17              0.0000000000
      2230        23  POPC      C12           -14.8344376111        6.0131984602       20.3244162297  MEMB      17              0.0000000000
      2231        23  POPC      H12A          -14.6040336025        5.1724647710       19.6893478586  MEMB      17              0.0000000000
      2232        23  POPC      H12B          -13.9997956563        6.1347865408       21.0067235579  MEMB      17              0.0000000000
      2233        23  POPC      C13           -16.6522040630        6.9224661411       21.6908598635  MEMB      17              0.0000000000
      2234        23  POPC      H13A          -15.9782867768        7.3809045136       22.4058894826  MEMB      17              0.0000000000
      2235        23  POPC      H13B          -16.8232140281        7.6463852449       20.8904825198  MEMB      17              0.0000000000
      2236        23  POPC      H13C          -17.5975309385        6.7394590839       22.1804387893  MEMB      17              0.0000000000
      2237        23  POPC      C14           -17.1005052403        5.0578292698       20.2061396366  MEMB      17              0.0000000000
      2238        23  POPC      H14A          -16.8903664744        4.0159818091       20.0113894345  MEMB      17              0.0000000000
      2239        23  POPC      H14B          -18.0819335283        5.0920358471       20.6617172640  MEMB      17              0.0000000000
      2240        23  POPC      H14C          -17.1264894160        5.6358566521       19.2796751422  MEMB      17              0.0000000000
      2241        23  POPC      C15           -15.7665465988        4.7135129606       22.2022164634  MEMB      17              0.0000000000
      2242        23  POPC      H15A          -16.6968617503        4.3451436868       22.6295135815  MEMB      17              0.0000000000
      2243        23  POPC      H15B          -15.1714626724        5.1852817628       22.9806884477  MEMB      17              0.0000000000
      2244        23  POPC      H15C          -15.2392572831        3.8395544451       21.8515581592  MEMB      17              0.0000000000
      2245        23  POPC      C11           -14.9563637567        7.2580780735       19.4159818873  MEMB      17              0.0000000000
      2246        23  POPC      H11A          -14.0326260317        7.3359865856       18.7941950776  MEMB      17              0.0000000000
      2247        23  POPC      H11B          -15.0026072171        8.1806667582       20.0403622977  MEMB      17              0.0000000000
      2248        23  POPC      P             -16.4106183001        8.2254075253       17.4970938610  MEMB      17              0.0000000000
      2249        23  POPC      O13           -16.1071384469        9.5319594761       18.1136894144  MEMB      17              0.0000000000
      2250        23  POPC      O14           -17.7904609601        8.0084862466       17.0205633939  MEMB      17              0.0000000000
      2251        23  POPC      O12           -16.1276097523        7.1380616282       18.6004330546  MEMB      17              0.0000000000
      2252        23  POPC      O11           -15.3317456667        7.8070638854       16.3919968608  MEMB      17              0.0000000000
      2253        23  POPC      C1            -15.1388454099        6.3864327919       16.2139684113  MEMB      17              0.0000000000
      2254        23  POPC      HA            -16.0987793654        5.8914115358       15.9330986769  MEMB      17              0.0000000000
      2255        23  POPC      HB            -14.7682780621        5.9174063596       17.1534544955  MEMB      17              0.0000000000
      2256        23  POPC      C2            -14.0607393276        5.9822506031       15.1612801355  MEMB      17              0.0000000000
      2257        23  POPC      HS            -13.8280790983        4.9073589450       15.3412533828  MEMB      17              0.0000000000
      2258        23  POPC      O21           -12.8718089918        6.7856536058       15.3084339087  MEMB      17              0.0000000000
      2259        23  POPC      C21           -11.8860429660        6.4270157306       14.5007184127  MEMB      17              0.0000000000
      2260        23  POPC      O22           -11.7591337754        5.3250091128       13.9891849831  MEMB      17              0.0000000000
      2261        23  POPC      C22           -10.9651511255        7.6135636239       14.2858173824  MEMB      17              0.0000000000
      2262        23  POPC      H2R           -10.0238398168        7.3929227959       14.8244785609  MEMB      17              0.0000000000
      2263        23  POPC      H2S           -11.4183289771        8.5345332185       14.7088402957  MEMB      17              0.0000000000
      2264        23  POPC      C3            -14.6297666905        6.0989379766       13.7162476570  MEMB      17              0.0000000000
      2265        23  POPC      HX            -15.6118967184        5.5785716567       13.7467813184  MEMB      17              0.0000000000
      2266        23  POPC      HY            -13.9896994407        5.5313919291       13.0066865809  MEMB      17              0.0000000000
      2267        23  POPC      O31           -14.7103404628        7.4690099706       13.2780319771  MEMB      17              0.0000000000
      2268        23  POPC      C31           -15.8628173948        7.8456251910       12.7592690442  MEMB      17              0.0000000000
      2269        23  POPC      O32           -16.8637630600        7.1597883216       12.6546872009  MEMB      17              0.0000000000
      2270        23  POPC      C32           -15.6907080644        9.2349516909       12.1350389551  MEMB      17              0.0000000000
      2271        23  POPC      H2X           -14.6257186246        9.3368317567       11.8375772612  MEMB      17              0.0000000000
      2272        23  POPC      H2Y           -15.9169126362       10.0006140658       12.9024002572  MEMB      17              0.0000000000
      2273        23  POPC      C23           -10.7058320448        7.7833681931       12.7793258124  MEMB      17              0.0000000000
      2274        23  POPC      H3R           -10.4555357383        6.7967661420       12.3333318668  MEMB      17              0.0000000000
      2275        23  POPC      H3S            -9.8268072420        8.4446581577       12.6403151409  MEMB      17              0.0000000000
      2276        23  POPC      C24           -11.8991250837        8.3872948919       12.0270705905  MEMB      17              0.0000000000
      2277        23  POPC      H4R           -12.2204866148        9.3025867544       12.5746936965  MEMB      17              0.0000000000
      2278        23  POPC      H4S           -12.7500076294        7.6750118208       12.0360313009  MEMB      17              0.0000000000
      2279        23  POPC      C25           -11.5788870854        8.7591942497       10.5734505746  MEMB      17              0.0000000000
      2280        23  POPC      H5R           -10.4815427788        8.9032869424       10.4709751928  MEMB      17              0.0000000000
      2281        23  POPC      H5S           -12.0622376070        9.7344308716       10.3367462269  MEMB      17              0.0000000000
      2282        23  POPC      C26           -12.0607742516        7.7339865417        9.5276966345  MEMB      17              0.0000000000
      2283        23  POPC      H6R           -11.6512644706        8.0669926641        8.5490708283  MEMB      17              0.0000000000
      2284        23  POPC      H6S           -13.1704623546        7.7529391460        9.4553584047  MEMB      17              0.0000000000
      2285        23  POPC      C27           -11.6039040012        6.2892389693        9.7885714769  MEMB      17              0.0000000000
      2286        23  POPC      H7R           -12.2828433221        5.7907440404       10.5135736143  MEMB      17              0.0000000000
      2287        23  POPC      H7S           -10.6022844364        6.3352291049       10.2635708887  MEMB      17              0.0000000000
      2288        23  POPC      C28           -11.4162911196        5.4366679714        8.5170589038  MEMB      17              0.0000000000
      2289        23  POPC      H8R           -10.8338616102        4.5329751908        8.8092932752  MEMB      17              0.0000000000
      2290        23  POPC      H8S           -10.7647996860        6.0025478059        7.8137644554  MEMB      17              0.0000000000
      2291        23  POPC      C29           -12.6946009808        4.9928198234        7.8555176406  MEMB      17              0.0000000000
      2292        23  POPC      H91           -13.2005781211        4.1484272938        8.3509717029  MEMB      17              0.0000000000
      2293        23  POPC      C210          -13.2338470736        5.5216642781        6.7417269141  MEMB      17              0.0000000000
      2294        23  POPC      H101          -14.1542296885        5.0747424304        6.3336855937  MEMB      17              0.0000000000
      2295        23  POPC      C211          -12.6671483139        6.6682466635        5.9379746166  MEMB      17              0.0000000000
      2296        23  POPC      H11R          -12.1886399659        7.4179357323        6.6051851439  MEMB      17              0.0000000000
      2297        23  POPC      H11S          -13.4930979060        7.2090278685        5.4327548416  MEMB      17              0.0000000000
      2298        23  POPC      C212          -11.6208771402        6.2642054507        4.8777750685  MEMB      17              0.0000000000
      2299        23  POPC      H12R          -10.7400501394        5.8149721269        5.3904692482  MEMB      17              0.0000000000
      2300        23  POPC      H12S          -11.2715229439        7.1857871869        4.3592390714  MEMB      17              0.0000000000
      2301        23  POPC      C213          -12.1273501402        5.2692116924        3.8208063846  MEMB      17              0.0000000000
      2302        23  POPC      H13R          -12.3921723845        4.3225425160        4.3419540116  MEMB      17              0.0000000000
      2303        23  POPC      H13S          -11.2991393469        5.0339700463        3.1147173904  MEMB      17              0.0000000000
      2304        23  POPC      C214          -13.3367070187        5.7795611192        3.0212927334  MEMB      17              0.0000000000
      2305        23  POPC      H14R          -13.0670156880        6.7346207412        2.5178296987  MEMB      17              0.0000000000
      2306        23  POPC      H14S          -14.1768309397        5.9936244092        3.7199292355  MEMB      17              0.0000000000
      2307        23  POPC      C215          -13.8524472890        4.7805567034        1.9731556195  MEMB      17              0.0000000000
      2308        23  POPC      H15R          -13.0842022995        4.6351532175        1.1819292212  MEMB      17              0.0000000000
      2309        23  POPC      H15S          -14.7583669824        5.2136312471        1.4907467532  MEMB      17              0.0000000000
      2310        23  POPC      C216          -14.2149212530        3.4206426443        2.5816210955  MEMB      17              0.0000000000
      2311        23  POPC      H16R          -14.8322148531        3.5856112099        3.4899555832  MEMB      17              0.0000000000
      2312        23  POPC      H16S          -13.2953638179        2.8999846422        2.9203819643  MEMB      17              0.0000000000
      2313        23  POPC      C217          -14.9598974901        2.5052932553        1.6102399966  MEMB      17              0.0000000000
      2314        23  POPC      H17R          -14.3415100828        2.3587488558        0.6949067376  MEMB      17              0.0000000000
      2315        23  POPC      H17S          -15.9110284300        2.9947165702        1.2982606345  MEMB      17              0.0000000000
      2316        23  POPC      C218          -15.2685986924        1.1450247103        2.2291826180  MEMB      17              0.0000000000
      2317        23  POPC      H18R          -15.8689375765        0.5379473439        1.5251804734  MEMB      17              0.0000000000
      2318        23  POPC      H18S          -15.8540238877        1.2583713938        3.1662717776  MEMB      17              0.0000000000
      2319        23  POPC      H18T          -14.3299907126        0.5989288666        2.4667006423  MEMB      17              0.0000000000
      2320        23  POPC      C33           -16.5936891164        9.4113399510       10.8877867428  MEMB      17              0.0000000000
      2321        23  POPC      H3X           -17.5597712345        9.8764071807       11.1858139958  MEMB      17              0.0000000000
      2322        23  POPC      H3Y           -16.8392264825        8.4141858520       10.4474745876  MEMB      17              0.0000000000
      2323        23  POPC      C34           -15.9336408837       10.2110201258        9.7578160892  MEMB      17              0.0000000000
      2324        23  POPC      H4X           -14.9556247323        9.7372401233        9.5096019170  MEMB      17              0.0000000000
      2325        23  POPC      H4Y           -15.7370110564       11.2552177772       10.0834647709  MEMB      17              0.0000000000
      2326        23  POPC      C35           -16.8079857220       10.2121867704        8.4965053609  MEMB      17              0.0000000000
      2327        23  POPC      H5X           -17.7328607508       10.7985559462        8.6910604533  MEMB      17              0.0000000000
      2328        23  POPC      H5Y           -17.1094488719        9.1629202516        8.2785583624  MEMB      17              0.0000000000
      2329        23  POPC      C36           -16.0924934824       10.7870146724        7.2700136951  MEMB      17              0.0000000000
      2330        23  POPC      H6X           -15.1422800370       10.2309325099        7.1156992232  MEMB      17              0.0000000000
      2331        23  POPC      H6Y           -15.8278090575       11.8467037315        7.4828325061  MEMB      17              0.0000000000
      2332        23  POPC      C37           -16.9373806548       10.7388986801        5.9850369352  MEMB      17              0.0000000000
      2333        23  POPC      H7X           -16.4337057323       11.3457577549        5.2001180901  MEMB      17              0.0000000000
      2334        23  POPC      H7Y           -17.9129969919       11.2340933474        6.1846392796  MEMB      17              0.0000000000
      2335        23  POPC      C38           -17.1817378579        9.3190034488        5.4385949933  MEMB      17              0.0000000000
      2336        23  POPC      H8X           -17.8752839114        9.3812219161        4.5710579301  MEMB      17              0.0000000000
      2337        23  POPC      H8Y           -17.6898076716        8.6999081714        6.2096683786  MEMB      17              0.0000000000
      2338        23  POPC      C39           -15.9076262420        8.5801499590        5.0006439429  MEMB      17              0.0000000000
      2339        23  POPC      H9X           -16.1889223552        7.5619967526        4.6456865926  MEMB      17              0.0000000000
      2340        23  POPC      H9Y           -15.2489256743        8.4480009237        5.8871890913  MEMB      17              0.0000000000
      2341        23  POPC      C310          -15.1162719642        9.2848180217        3.8872442397  MEMB      17              0.0000000000
      2342        23  POPC      H10X          -14.1885615109        8.6985519177        3.6957170367  MEMB      17              0.0000000000
      2343        23  POPC      H10Y          -14.7992075840       10.2962928691        4.2201810188  MEMB      17              0.0000000000
      2344        23  POPC      C311          -15.8988709931        9.3890020639        2.5715864296  MEMB      17              0.0000000000
      2345        23  POPC      H11X          -16.8265732125        9.9859019370        2.7133859552  MEMB      17              0.0000000000
      2346        23  POPC      H11Y          -16.2083824049        8.3577879128        2.2903879513  MEMB      17              0.0000000000
      2347        23  POPC      C312          -15.0756814859       10.0167560250        1.4377889900  MEMB      17              0.0000000000
      2348        23  POPC      H12X          -14.0080269345        9.7155247402        1.5456365992  MEMB      17              0.0000000000
      2349        23  POPC      H12Y          -15.1156710620       11.1246633067        1.5332891673  MEMB      17              0.0000000000
      2350        23  POPC      C313          -15.5526225045        9.5878072147        0.0418627489  MEMB      17              0.0000000000
      2351        23  POPC      H13X          -15.0398279995       10.2171577633       -0.7187374632  MEMB      17              0.0000000000
      2352        23  POPC      H13Y          -16.6447393339        9.7652879038       -0.0689135040  MEMB      17              0.0000000000
      2353        23  POPC      C314          -15.2266553753        8.1135805827       -0.2359210314  MEMB      17              0.0000000000
      2354        23  POPC      H14X          -15.8886021178        7.4576661582        0.3710249595  MEMB      17              0.0000000000
      2355        23  POPC      H14Y          -14.1787174441        7.9121124023        0.0823406150  MEMB      17              0.0000000000
      2356        23  POPC      C315          -15.3572124427        7.7170357470       -1.7060436515  MEMB      17              0.0000000000
      2357        23  POPC      H15X          -14.6766097051        8.3551853013       -2.3122443738  MEMB      17              0.0000000000
      2358        23  POPC      H15Y          -16.3924201584        7.9222174389       -2.0522778633  MEMB      17              0.0000000000
      2359        23  POPC      C316          -15.0112095011        6.2438335009       -1.9385635860  MEMB      17              0.0000000000
      2360        23  POPC      H16X          -13.9605726160        6.0451790333       -1.6367465464  MEMB      17              0.0000000000
      2361        23  POPC      H16Y          -15.1269365723        5.9792934905       -3.0103786404  MEMB      17              0.0000000000
      2362        23  POPC      H16Z          -15.6790805351        5.5875728490       -1.3402963310  MEMB      17              0.0000000000
      2363        24  POPC      N              -5.0487843167       19.0483807371       20.9291443108  MEMB      18              0.0000000000
      2364        24  POPC      C12            -4.1065508715       20.0901181746       20.3070265156  MEMB      18              0.0000000000
      2365        24  POPC      H12A           -3.2158302210       20.1846832587       20.9097415788  MEMB      18              0.0000000000
      2366        24  POPC      H12B           -4.5946225509       21.0656183415       20.2930209564  MEMB      18              0.0000000000
      2367        24  POPC      C13            -6.4194035461       19.1744716546       20.3406862854  MEMB      18              0.0000000000
      2368        24  POPC      H13A           -6.3512519529       19.2143688704       19.2564705018  MEMB      18              0.0000000000
      2369        24  POPC      H13B           -7.0652113103       18.3531874858       20.6340646037  MEMB      18              0.0000000000
      2370        24  POPC      H13C           -6.8643433472       20.1071688177       20.6692819300  MEMB      18              0.0000000000
      2371        24  POPC      C14            -4.5101643809       17.6703466872       20.6710367547  MEMB      18              0.0000000000
      2372        24  POPC      H14A           -3.4939692856       17.5791261312       21.0695620848  MEMB      18              0.0000000000
      2373        24  POPC      H14B           -5.0985000546       16.8981829302       21.1580316656  MEMB      18              0.0000000000
      2374        24  POPC      H14C           -4.4674835817       17.4653365989       19.6064219040  MEMB      18              0.0000000000
      2375        24  POPC      C15            -5.2134656479       19.2068213152       22.4099403233  MEMB      18              0.0000000000
      2376        24  POPC      H15A           -5.6394651557       20.1680476114       22.6897617041  MEMB      18              0.0000000000
      2377        24  POPC      H15B           -4.2719102620       19.0521444555       22.9195137560  MEMB      18              0.0000000000
      2378        24  POPC      H15C           -5.8930118753       18.4338560973       22.7662614416  MEMB      18              0.0000000000
      2379        24  POPC      C11            -3.5910070690       19.8552269033       18.8532089810  MEMB      18              0.0000000000
      2380        24  POPC      H11A           -3.0062681694       18.9098757349       18.8052753925  MEMB      18              0.0000000000
      2381        24  POPC      H11B           -2.8497049597       20.6543893117       18.5973117943  MEMB      18              0.0000000000
      2382        24  POPC      P              -5.3360802329       21.1578587704       17.4292665628  MEMB      18              0.0000000000
      2383        24  POPC      O13            -4.5067287068       21.8933427076       16.4548561742  MEMB      18              0.0000000000
      2384        24  POPC      O14            -5.7711579628       21.8537156189       18.6797971667  MEMB      18              0.0000000000
      2385        24  POPC      O12            -4.6514278238       19.7982623541       17.8983559896  MEMB      18              0.0000000000
      2386        24  POPC      O11            -6.6465426294       20.6433899955       16.6821527725  MEMB      18              0.0000000000
      2387        24  POPC      C1             -7.2882434799       19.3960616766       16.9053139676  MEMB      18              0.0000000000
      2388        24  POPC      HA             -7.8759784181       19.4393953932       17.8479654036  MEMB      18              0.0000000000
      2389        24  POPC      HB             -6.5432495812       18.5680296254       16.9813609065  MEMB      18              0.0000000000
      2390        24  POPC      C2             -8.2790749445       19.0350343037       15.7527045480  MEMB      18              0.0000000000
      2391        24  POPC      HS             -8.7566793737       18.0715236916       16.0110272299  MEMB      18              0.0000000000
      2392        24  POPC      O21            -7.5679991116       18.9487002848       14.5065064080  MEMB      18              0.0000000000
      2393        24  POPC      C21            -6.9413787373       17.8104919245       14.3240914037  MEMB      18              0.0000000000
      2394        24  POPC      O22            -7.1933036031       16.7629316826       14.9028844631  MEMB      18              0.0000000000
      2395        24  POPC      C22            -5.7726867815       17.9937749084       13.3600124907  MEMB      18              0.0000000000
      2396        24  POPC      H2R            -5.7905503659       17.1378254627       12.6575327127  MEMB      18              0.0000000000
      2397        24  POPC      H2S            -4.8437319985       17.9324278263       13.9671003020  MEMB      18              0.0000000000
      2398        24  POPC      C3             -9.4654760743       20.0362055205       15.6045659635  MEMB      18              0.0000000000
      2399        24  POPC      HX             -9.9008247394       20.1451240360       16.6211866230  MEMB      18              0.0000000000
      2400        24  POPC      HY            -10.2581560537       19.5759298297       14.9645765458  MEMB      18              0.0000000000
      2401        24  POPC      O31            -9.0674710143       21.3379624687       15.1281967174  MEMB      18              0.0000000000
      2402        24  POPC      C31            -8.9016835595       21.3988670108       13.8047292297  MEMB      18              0.0000000000
      2403        24  POPC      O32            -9.2300211188       20.5393074287       13.0117069436  MEMB      18              0.0000000000
      2404        24  POPC      C32            -8.3474323121       22.7646449362       13.4310823530  MEMB      18              0.0000000000
      2405        24  POPC      H2X            -7.2396308580       22.7308849629       13.4973159937  MEMB      18              0.0000000000
      2406        24  POPC      H2Y            -8.7168202564       23.5040915412       14.1722414670  MEMB      18              0.0000000000
      2407        24  POPC      C23            -5.7664990115       19.3378462255       12.5924698960  MEMB      18              0.0000000000
      2408        24  POPC      H3R            -5.9373242021       20.1844654523       13.3015975868  MEMB      18              0.0000000000
      2409        24  POPC      H3S            -6.5936397779       19.3477500044       11.8485515795  MEMB      18              0.0000000000
      2410        24  POPC      C24            -4.4231573926       19.6040697417       11.8995120782  MEMB      18              0.0000000000
      2411        24  POPC      H4R            -3.6580085398       19.7882565013       12.6913166189  MEMB      18              0.0000000000
      2412        24  POPC      H4S            -4.5124358516       20.5329727725       11.2943050701  MEMB      18              0.0000000000
      2413        24  POPC      C25            -3.9191538248       18.4574226446       11.0079153206  MEMB      18              0.0000000000
      2414        24  POPC      H5R            -3.6568666148       17.5766281590       11.6363934701  MEMB      18              0.0000000000
      2415        24  POPC      H5S            -2.9765936391       18.7925666467       10.5226039385  MEMB      18              0.0000000000
      2416        24  POPC      C26            -4.8980115801       18.0096620747        9.9072009914  MEMB      18              0.0000000000
      2417        24  POPC      H6R            -5.2839855436       18.9021554076        9.3705489634  MEMB      18              0.0000000000
      2418        24  POPC      H6S            -5.7573891383       17.4793031064       10.3688943587  MEMB      18              0.0000000000
      2419        24  POPC      C27            -4.1853561786       17.0975766823        8.9041777439  MEMB      18              0.0000000000
      2420        24  POPC      H7R            -3.6796100621       16.2741400563        9.4556009009  MEMB      18              0.0000000000
      2421        24  POPC      H7S            -3.3951106349       17.7300619551        8.4463354775  MEMB      18              0.0000000000
      2422        24  POPC      C28            -5.0430251779       16.5208439624        7.7648048109  MEMB      18              0.0000000000
      2423        24  POPC      H8R            -4.3608955982       16.0674188674        7.0126813735  MEMB      18              0.0000000000
      2424        24  POPC      H8S            -5.5489564041       17.3606244221        7.2463959995  MEMB      18              0.0000000000
      2425        24  POPC      C29            -6.0019297326       15.4513970390        8.2111282475  MEMB      18              0.0000000000
      2426        24  POPC      H91            -5.5940026805       14.7345012754        8.9429906189  MEMB      18              0.0000000000
      2427        24  POPC      C210           -7.2726221785       15.3302371814        7.7960206739  MEMB      18              0.0000000000
      2428        24  POPC      H101           -7.8830527297       14.4921696172        8.1694116394  MEMB      18              0.0000000000
      2429        24  POPC      C211           -7.9621469088       16.2436326926        6.8158163490  MEMB      18              0.0000000000
      2430        24  POPC      H11R           -7.7378961713       17.3083588167        7.0523667237  MEMB      18              0.0000000000
      2431        24  POPC      H11S           -9.0559644115       16.1138483490        6.9482142667  MEMB      18              0.0000000000
      2432        24  POPC      C212           -7.6509397859       16.0150172941        5.3209762715  MEMB      18              0.0000000000
      2433        24  POPC      H12R           -6.5641723016       16.1453256100        5.1241402820  MEMB      18              0.0000000000
      2434        24  POPC      H12S           -8.1863648822       16.7981022661        4.7372064087  MEMB      18              0.0000000000
      2435        24  POPC      C213           -8.1104377923       14.6349297070        4.8418393083  MEMB      18              0.0000000000
      2436        24  POPC      H13R           -9.0660785115       14.3779347403        5.3566470666  MEMB      18              0.0000000000
      2437        24  POPC      H13S           -7.3638210592       13.8806638610        5.1656547048  MEMB      18              0.0000000000
      2438        24  POPC      C214           -8.3532597080       14.4902343017        3.3304216339  MEMB      18              0.0000000000
      2439        24  POPC      H14R           -9.3690623567       14.8631880142        3.0769886198  MEMB      18              0.0000000000
      2440        24  POPC      H14S           -8.3354593932       13.3988540086        3.1105812516  MEMB      18              0.0000000000
      2441        24  POPC      C215           -7.3567235230       15.1471860620        2.3735186274  MEMB      18              0.0000000000
      2442        24  POPC      H15R           -6.3282688847       15.0026031472        2.7608942396  MEMB      18              0.0000000000
      2443        24  POPC      H15S           -7.5465060085       16.2408188309        2.3135661359  MEMB      18              0.0000000000
      2444        24  POPC      C216           -7.4791295870       14.5026994881        0.9813178694  MEMB      18              0.0000000000
      2445        24  POPC      H16R           -8.5441549442       14.5276146855        0.6565884869  MEMB      18              0.0000000000
      2446        24  POPC      H16S           -7.1886127054       13.4321091786        1.0661209517  MEMB      18              0.0000000000
      2447        24  POPC      C217           -6.6221152074       15.1671245918       -0.0976110001  MEMB      18              0.0000000000
      2448        24  POPC      H17R           -5.5898711653       15.3221092603        0.2872659439  MEMB      18              0.0000000000
      2449        24  POPC      H17S           -7.0571902645       16.1696552898       -0.3012007331  MEMB      18              0.0000000000
      2450        24  POPC      C218           -6.5584855841       14.3650655265       -1.4013002083  MEMB      18              0.0000000000
      2451        24  POPC      H18R           -5.9421196288       14.8936879720       -2.1594899645  MEMB      18              0.0000000000
      2452        24  POPC      H18S           -7.5776618899       14.2237724249       -1.8195554907  MEMB      18              0.0000000000
      2453        24  POPC      H18T           -6.1089062264       13.3634914177       -1.2249754445  MEMB      18              0.0000000000
      2454        24  POPC      C33            -8.8095369458       23.1646692298       12.0127329701  MEMB      18              0.0000000000
      2455        24  POPC      H3X            -8.7444327219       24.2699763618       11.9228659996  MEMB      18              0.0000000000
      2456        24  POPC      H3Y            -9.8767121462       22.8838186106       11.8586808761  MEMB      18              0.0000000000
      2457        24  POPC      C34            -7.9511550127       22.5317944163       10.9070729367  MEMB      18              0.0000000000
      2458        24  POPC      H4X            -7.8651738358       21.4358812669       11.0825192336  MEMB      18              0.0000000000
      2459        24  POPC      H4Y            -6.9247113546       22.9576333288       10.9542086326  MEMB      18              0.0000000000
      2460        24  POPC      C35            -8.5533571098       22.7551130980        9.5122590976  MEMB      18              0.0000000000
      2461        24  POPC      H5X            -8.7729841618       23.8379227631        9.3808705202  MEMB      18              0.0000000000
      2462        24  POPC      H5Y            -9.5230916013       22.2183920780        9.4548645488  MEMB      18              0.0000000000
      2463        24  POPC      C36            -7.6429362390       22.3096642239        8.3578008764  MEMB      18              0.0000000000
      2464        24  POPC      H6X            -6.7003177392       22.8948331652        8.4054642919  MEMB      18              0.0000000000
      2465        24  POPC      H6Y            -8.1415698382       22.5546920431        7.3926199683  MEMB      18              0.0000000000
      2466        24  POPC      C37            -7.2742478648       20.8216201708        8.3704738462  MEMB      18              0.0000000000
      2467        24  POPC      H7X            -8.2001892865       20.2103039693        8.4526667854  MEMB      18              0.0000000000
      2468        24  POPC      H7Y            -6.6508001607       20.5989968379        9.2623446495  MEMB      18              0.0000000000
      2469        24  POPC      C38            -6.5253590042       20.3953115126        7.0985627034  MEMB      18              0.0000000000
      2470        24  POPC      H8X            -7.1552815692       20.6651670335        6.2225100063  MEMB      18              0.0000000000
      2471        24  POPC      H8Y            -6.4185604420       19.2895827631        7.1020657156  MEMB      18              0.0000000000
      2472        24  POPC      C39            -5.1279904611       21.0196143572        6.9567487026  MEMB      18              0.0000000000
      2473        24  POPC      H9X            -4.5129476469       20.7329550038        7.8399584390  MEMB      18              0.0000000000
      2474        24  POPC      H9Y            -5.2141308786       22.1290875038        6.9513171657  MEMB      18              0.0000000000
      2475        24  POPC      C310           -4.3896177200       20.5923063038        5.6778196382  MEMB      18              0.0000000000
      2476        24  POPC      H10X           -4.1976950515       19.4970681979        5.6917349169  MEMB      18              0.0000000000
      2477        24  POPC      H10Y           -3.3959901759       21.0985002514        5.6716536509  MEMB      18              0.0000000000
      2478        24  POPC      C311           -5.1424676767       20.9765502672        4.3944673261  MEMB      18              0.0000000000
      2479        24  POPC      H11X           -4.4133487566       21.3625002176        3.6480702012  MEMB      18              0.0000000000
      2480        24  POPC      H11Y           -5.8333529994       21.8157499511        4.6256453529  MEMB      18              0.0000000000
      2481        24  POPC      C312           -5.9024724514       19.8092747187        3.7433228512  MEMB      18              0.0000000000
      2482        24  POPC      H12X           -6.6835122014       19.4265033593        4.4349795234  MEMB      18              0.0000000000
      2483        24  POPC      H12Y           -5.1828612278       18.9786908103        3.5609396577  MEMB      18              0.0000000000
      2484        24  POPC      C313           -6.5488313230       20.1928053972        2.4019908768  MEMB      18              0.0000000000
      2485        24  POPC      H13X           -6.9921467260       19.2845772118        1.9343652134  MEMB      18              0.0000000000
      2486        24  POPC      H13Y           -5.7467061310       20.5603444112        1.7216009177  MEMB      18              0.0000000000
      2487        24  POPC      C314           -7.6362947138       21.2757755686        2.5067015032  MEMB      18              0.0000000000
      2488        24  POPC      H14X           -7.2661256431       22.1393203341        3.0957055159  MEMB      18              0.0000000000
      2489        24  POPC      H14Y           -8.5113120794       20.8754621123        3.0608140294  MEMB      18              0.0000000000
      2490        24  POPC      C315           -8.0657411525       21.7963159371        1.1281726014  MEMB      18              0.0000000000
      2491        24  POPC      H15X           -8.5644391659       20.9762411047        0.5650682397  MEMB      18              0.0000000000
      2492        24  POPC      H15Y           -7.1540977056       22.0751860142        0.5519443533  MEMB      18              0.0000000000
      2493        24  POPC      C316           -8.9877358941       23.0151660178        1.1935413997  MEMB      18              0.0000000000
      2494        24  POPC      H16X           -9.2676823451       23.3395437944        0.1679398535  MEMB      18              0.0000000000
      2495        24  POPC      H16Y           -8.4740846450       23.8646649521        1.6949947116  MEMB      18              0.0000000000
      2496        24  POPC      H16Z           -9.9147383799       22.7805847118        1.7594357486  MEMB      18              0.0000000000
      2497        25  POPC      N              22.2414666214        0.4909716108       20.7386048273  MEMB      19              0.0000000000
      2498        25  POPC      C12            22.3627758512        0.9644331699       19.3074496374  MEMB      19              0.0000000000
      2499        25  POPC      H12A           23.2072301562        0.5031139968       18.8071538102  MEMB      19              0.0000000000
      2500        25  POPC      H12B           22.5728026416        2.0337180138       19.2818027042  MEMB      19              0.0000000000
      2501        25  POPC      C13            23.4415067760        0.7619196841       21.5692996327  MEMB      19              0.0000000000
      2502        25  POPC      H13A           23.2767111748        0.4605969719       22.6024542385  MEMB      19              0.0000000000
      2503        25  POPC      H13B           24.3106125571        0.2349286468       21.2016141337  MEMB      19              0.0000000000
      2504        25  POPC      H13C           23.7142017950        1.8086085380       21.5959838156  MEMB      19              0.0000000000
      2505        25  POPC      C14            21.0607289202        1.1441385581       21.3972257488  MEMB      19              0.0000000000
      2506        25  POPC      H14A           21.2013473105        2.2088893043       21.5380621500  MEMB      19              0.0000000000
      2507        25  POPC      H14B           20.1826886740        1.0276750707       20.7494936820  MEMB      19              0.0000000000
      2508        25  POPC      H14C           20.8264377893        0.6692975646       22.3431880611  MEMB      19              0.0000000000
      2509        25  POPC      C15            22.0280428415       -0.9904435935       20.7435646676  MEMB      19              0.0000000000
      2510        25  POPC      H15A           21.1631858960       -1.2549075178       20.1376412695  MEMB      19              0.0000000000
      2511        25  POPC      H15B           21.7690328852       -1.3312653378       21.7413779016  MEMB      19              0.0000000000
      2512        25  POPC      H15C           22.8875831323       -1.5407605377       20.3881741079  MEMB      19              0.0000000000
      2513        25  POPC      C11            21.0857114568        0.8389312907       18.4656624117  MEMB      19              0.0000000000
      2514        25  POPC      H11A           20.5673753055       -0.1296823181       18.6397200531  MEMB      19              0.0000000000
      2515        25  POPC      H11B           21.3624735181        0.8442321679       17.3806318106  MEMB      19              0.0000000000
      2516        25  POPC      P              20.1755806559        3.2014978307       17.9076944715  MEMB      19              0.0000000000
      2517        25  POPC      O13            19.2422872809        4.1687975623       18.5209933446  MEMB      19              0.0000000000
      2518        25  POPC      O14            20.0259823453        2.8171762018       16.4864685484  MEMB      19              0.0000000000
      2519        25  POPC      O12            20.2224178975        1.9222081670       18.8363707377  MEMB      19              0.0000000000
      2520        25  POPC      O11            21.6672191823        3.7084110654       18.0894306490  MEMB      19              0.0000000000
      2521        25  POPC      C1             22.1886347340        4.3049634679       19.2597867226  MEMB      19              0.0000000000
      2522        25  POPC      HA             21.9842518221        3.6748233473       20.1514830281  MEMB      19              0.0000000000
      2523        25  POPC      HB             21.6926817159        5.2888266794       19.4040599443  MEMB      19              0.0000000000
      2524        25  POPC      C2             23.7334989956        4.5220179465       19.1375537628  MEMB      19              0.0000000000
      2525        25  POPC      HS             24.0802191761        5.0943994163       20.0269784294  MEMB      19              0.0000000000
      2526        25  POPC      O21            24.1079410854        5.1928306317       17.9450643590  MEMB      19              0.0000000000
      2527        25  POPC      C21            23.6849055633        6.3976660271       17.7789020806  MEMB      19              0.0000000000
      2528        25  POPC      O22            23.2317193471        7.1361983839       18.6459824469  MEMB      19              0.0000000000
      2529        25  POPC      C22            23.7094194671        6.6948528183       16.2950767182  MEMB      19              0.0000000000
      2530        25  POPC      H2R            24.5955130070        6.2212061945       15.8255069507  MEMB      19              0.0000000000
      2531        25  POPC      H2S            23.8542208066        7.7845472260       16.2369450554  MEMB      19              0.0000000000
      2532        25  POPC      C3             24.5841800926        3.2411721942       19.0797062997  MEMB      19              0.0000000000
      2533        25  POPC      HX             24.4587703722        2.6429677320       19.9984494796  MEMB      19              0.0000000000
      2534        25  POPC      HY             25.6244590199        3.6608934547       19.0827578750  MEMB      19              0.0000000000
      2535        25  POPC      O31            24.3108514906        2.4410110596       17.8949582446  MEMB      19              0.0000000000
      2536        25  POPC      C31            25.4268593520        1.8319760374       17.4709267766  MEMB      19              0.0000000000
      2537        25  POPC      O32            26.4327255753        1.7778007393       18.1440368703  MEMB      19              0.0000000000
      2538        25  POPC      C32            25.2036742678        1.1389927854       16.1188207336  MEMB      19              0.0000000000
      2539        25  POPC      H2X            24.1966588526        0.6803574144       16.1334987470  MEMB      19              0.0000000000
      2540        25  POPC      H2Y            25.9653948644        0.3328139971       16.0605912818  MEMB      19              0.0000000000
      2541        25  POPC      C23            22.3937475551        6.2538539988       15.6118296297  MEMB      19              0.0000000000
      2542        25  POPC      H3R            22.1092555330        7.0158457831       14.8576287347  MEMB      19              0.0000000000
      2543        25  POPC      H3S            21.5461623984        6.2158335662       16.3326765683  MEMB      19              0.0000000000
      2544        25  POPC      C24            22.4997993168        4.9044302361       14.8827271797  MEMB      19              0.0000000000
      2545        25  POPC      H4R            22.4074273530        4.0900193674       15.6372817786  MEMB      19              0.0000000000
      2546        25  POPC      H4S            23.5022440611        4.8097763325       14.4137628054  MEMB      19              0.0000000000
      2547        25  POPC      C25            21.4204753042        4.7299772795       13.7989321642  MEMB      19              0.0000000000
      2548        25  POPC      H5R            20.5615342802        5.3878653592       14.0553827308  MEMB      19              0.0000000000
      2549        25  POPC      H5S            21.0400704283        3.6817339945       13.8232123510  MEMB      19              0.0000000000
      2550        25  POPC      C26            21.9458061971        5.0392082027       12.3886994396  MEMB      19              0.0000000000
      2551        25  POPC      H6R            22.5122575874        4.1546423352       12.0170771809  MEMB      19              0.0000000000
      2552        25  POPC      H6S            22.6580941411        5.8878753932       12.4512770107  MEMB      19              0.0000000000
      2553        25  POPC      C27            20.8432618228        5.4088963559       11.3861392069  MEMB      19              0.0000000000
      2554        25  POPC      H7R            20.3644228985        6.3582468519       11.7142940012  MEMB      19              0.0000000000
      2555        25  POPC      H7S            20.0621760934        4.6152323777       11.4117087515  MEMB      19              0.0000000000
      2556        25  POPC      C28            21.3613953716        5.5445611816        9.9402312415  MEMB      19              0.0000000000
      2557        25  POPC      H8R            20.4998614486        5.7994734675        9.2825384592  MEMB      19              0.0000000000
      2558        25  POPC      H8S            21.7117885320        4.5408983146        9.6122222192  MEMB      19              0.0000000000
      2559        25  POPC      C29            22.4368662542        6.5988215884        9.7962594759  MEMB      19              0.0000000000
      2560        25  POPC      H91            22.1315071218        7.6151053312       10.0867134661  MEMB      19              0.0000000000
      2561        25  POPC      C210           23.7038690007        6.4144196392        9.3814394751  MEMB      19              0.0000000000
      2562        25  POPC      H101           24.3680357938        7.2892782932        9.3081530366  MEMB      19              0.0000000000
      2563        25  POPC      C211           24.3384653621        5.1112039569        8.9677939257  MEMB      19              0.0000000000
      2564        25  POPC      H11R           23.7682154321        4.2338188951        9.3448287912  MEMB      19              0.0000000000
      2565        25  POPC      H11S           25.3512921729        5.0281662042        9.4192965691  MEMB      19              0.0000000000
      2566        25  POPC      C212           24.4736379028        4.9851052985        7.4398035271  MEMB      19              0.0000000000
      2567        25  POPC      H12R           25.0150352671        4.0348514856        7.2247404626  MEMB      19              0.0000000000
      2568        25  POPC      H12S           25.0916742851        5.8165197091        7.0349862798  MEMB      19              0.0000000000
      2569        25  POPC      C213           23.1175302922        4.9370783869        6.7189428318  MEMB      19              0.0000000000
      2570        25  POPC      H13R           22.5912396842        5.9121087850        6.8074360875  MEMB      19              0.0000000000
      2571        25  POPC      H13S           22.4864455734        4.1715771224        7.2259186567  MEMB      19              0.0000000000
      2572        25  POPC      C214           23.2359269673        4.5470370439        5.2410590817  MEMB      19              0.0000000000
      2573        25  POPC      H14R           22.2347683021        4.2218967812        4.8815422546  MEMB      19              0.0000000000
      2574        25  POPC      H14S           23.9201066324        3.6754536266        5.1514007306  MEMB      19              0.0000000000
      2575        25  POPC      C215           23.7098175789        5.6902918532        4.3337814128  MEMB      19              0.0000000000
      2576        25  POPC      H15R           24.6374980378        6.1519194748        4.7369037345  MEMB      19              0.0000000000
      2577        25  POPC      H15S           22.9222976370        6.4783418649        4.3395298231  MEMB      19              0.0000000000
      2578        25  POPC      C216           23.9465328525        5.2275943910        2.8875549654  MEMB      19              0.0000000000
      2579        25  POPC      H16R           23.5220520091        5.9892007285        2.1946606570  MEMB      19              0.0000000000
      2580        25  POPC      H16S           23.3981702559        4.2760428828        2.7088925629  MEMB      19              0.0000000000
      2581        25  POPC      C217           25.4316192756        5.0461547506        2.5348330820  MEMB      19              0.0000000000
      2582        25  POPC      H17R           25.9292215750        6.0392634302        2.6198070331  MEMB      19              0.0000000000
      2583        25  POPC      H17S           25.5030828501        4.7333355462        1.4691462105  MEMB      19              0.0000000000
      2584        25  POPC      C218           26.1876651348        4.0386368378        3.4074981435  MEMB      19              0.0000000000
      2585        25  POPC      H18R           25.6842393069        3.0477502223        3.3816399574  MEMB      19              0.0000000000
      2586        25  POPC      H18S           26.2212130687        4.3891962535        4.4617550664  MEMB      19              0.0000000000
      2587        25  POPC      H18T           27.2313048980        3.9162740835        3.0481704880  MEMB      19              0.0000000000
      2588        25  POPC      C33            25.3652212116        2.0609087063       14.8802181983  MEMB      19              0.0000000000
      2589        25  POPC      H3X            26.4027908239        2.4733462985       14.8888146238  MEMB      19              0.0000000000
      2590        25  POPC      H3Y            24.6593685882        2.9170920211       14.9527659103  MEMB      19              0.0000000000
      2591        25  POPC      C34            25.1466975312        1.3360537420       13.5303921817  MEMB      19              0.0000000000
      2592        25  POPC      H4X            25.8226673671        0.4517976749       13.4958746152  MEMB      19              0.0000000000
      2593        25  POPC      H4Y            25.4476814706        2.0235279366       12.7084037201  MEMB      19              0.0000000000
      2594        25  POPC      C35            23.7038598430        0.8647994801       13.2666684006  MEMB      19              0.0000000000
      2595        25  POPC      H5X            23.0393521399        1.7462364669       13.1212725522  MEMB      19              0.0000000000
      2596        25  POPC      H5Y            23.3424334430        0.3196862067       14.1668123252  MEMB      19              0.0000000000
      2597        25  POPC      C36            23.5632327748       -0.0945239436       12.0686226945  MEMB      19              0.0000000000
      2598        25  POPC      H6X            22.5256982184       -0.5020412734       12.0647252327  MEMB      19              0.0000000000
      2599        25  POPC      H6Y            24.2550621275       -0.9553583894       12.2068638313  MEMB      19              0.0000000000
      2600        25  POPC      C37            23.8259102515        0.5589666473       10.7029045607  MEMB      19              0.0000000000
      2601        25  POPC      H7X            24.8815962700        0.9050753626       10.6527249391  MEMB      19              0.0000000000
      2602        25  POPC      H7Y            23.1679022036        1.4514021791       10.6103813425  MEMB      19              0.0000000000
      2603        25  POPC      C38            23.5583782719       -0.4016000316        9.5300778735  MEMB      19              0.0000000000
      2604        25  POPC      H8X            22.5014375980       -0.7435958019        9.5708924242  MEMB      19              0.0000000000
      2605        25  POPC      H8Y            24.1992212355       -1.3024379335        9.6685721903  MEMB      19              0.0000000000
      2606        25  POPC      C39            23.8599318699        0.1961422650        8.1418053046  MEMB      19              0.0000000000
      2607        25  POPC      H9X            23.7449958230       -0.5950962445        7.3689766353  MEMB      19              0.0000000000
      2608        25  POPC      H9Y            24.9277024087        0.5143950693        8.1338294501  MEMB      19              0.0000000000
      2609        25  POPC      C310           22.9911431530        1.4046448756        7.7464302748  MEMB      19              0.0000000000
      2610        25  POPC      H10X           23.4285897902        1.8864238703        6.8445966800  MEMB      19              0.0000000000
      2611        25  POPC      H10Y           23.0447820842        2.1584913843        8.5617513154  MEMB      19              0.0000000000
      2612        25  POPC      C311           21.5084812518        1.0852818146        7.4776631818  MEMB      19              0.0000000000
      2613        25  POPC      H11X           20.9277235230        2.0332912803        7.5558121759  MEMB      19              0.0000000000
      2614        25  POPC      H11Y           21.1295918734        0.4043928625        8.2695946359  MEMB      19              0.0000000000
      2615        25  POPC      C312           21.2201735897        0.4766980479        6.0917938407  MEMB      19              0.0000000000
      2616        25  POPC      H12X           20.1586717994        0.1417868501        6.0747348681  MEMB      19              0.0000000000
      2617        25  POPC      H12Y           21.8566687372       -0.4198099290        5.9318121729  MEMB      19              0.0000000000
      2618        25  POPC      C313           21.4157427757        1.4723439495        4.9376411390  MEMB      19              0.0000000000
      2619        25  POPC      H13X           22.4902379853        1.7528660225        4.8750253780  MEMB      19              0.0000000000
      2620        25  POPC      H13Y           20.8337225461        2.3930649207        5.1631684805  MEMB      19              0.0000000000
      2621        25  POPC      C314           20.9782126301        0.9254212363        3.5699564328  MEMB      19              0.0000000000
      2622        25  POPC      H14X           19.8916263546        0.6866029472        3.5956754483  MEMB      19              0.0000000000
      2623        25  POPC      H14Y           21.5258860169       -0.0253586750        3.3783926527  MEMB      19              0.0000000000
      2624        25  POPC      C315           21.2611162274        1.8945837883        2.4088908849  MEMB      19              0.0000000000
      2625        25  POPC      H15X           21.0545813963        1.3613259633        1.4518585483  MEMB      19              0.0000000000
      2626        25  POPC      H15Y           22.3447774833        2.1520753901        2.4211368007  MEMB      19              0.0000000000
      2627        25  POPC      C316           20.4451855701        3.1906845511        2.4285181354  MEMB      19              0.0000000000
      2628        25  POPC      H16X           19.3621151872        2.9582463153        2.4134303764  MEMB      19              0.0000000000
      2629        25  POPC      H16Y           20.6818301009        3.8133546873        1.5390845762  MEMB      19              0.0000000000
      2630        25  POPC      H16Z           20.6626914135        3.7877809966        3.3381160535  MEMB      19              0.0000000000
      2631        26  POPC      N              18.7475960985        8.9925789783       20.4081241262  MEMB      20              0.0000000000
      2632        26  POPC      C12            19.2346249670        9.6123610923       19.1019993483  MEMB      20              0.0000000000
      2633        26  POPC      H12A           18.5227449829        9.3807132724       18.3246882390  MEMB      20              0.0000000000
      2634        26  POPC      H12B           20.1572874424        9.1090513539       18.8384680353  MEMB      20              0.0000000000
      2635        26  POPC      C13            17.2517387822        8.9490985749       20.4969632910  MEMB      20              0.0000000000
      2636        26  POPC      H13A           16.8308859255        9.9129589382       20.2299648533  MEMB      20              0.0000000000
      2637        26  POPC      H13B           16.8384541665        8.1963353163       19.8154374174  MEMB      20              0.0000000000
      2638        26  POPC      H13C           16.9092976189        8.6281357309       21.4797857646  MEMB      20              0.0000000000
      2639        26  POPC      C14            19.2051615893        7.5587048190       20.4906280995  MEMB      20              0.0000000000
      2640        26  POPC      H14A           20.2804091175        7.4991813198       20.5462277403  MEMB      20              0.0000000000
      2641        26  POPC      H14B           18.7727502083        7.0784435481       21.3637491131  MEMB      20              0.0000000000
      2642        26  POPC      H14C           18.8662486074        6.9674192506       19.6379754556  MEMB      20              0.0000000000
      2643        26  POPC      C15            19.3119850366        9.7597055990       21.5545121090  MEMB      20              0.0000000000
      2644        26  POPC      H15A           18.7291419533       10.6653847933       21.6791224147  MEMB      20              0.0000000000
      2645        26  POPC      H15B           20.3393121157       10.0462533900       21.3599699574  MEMB      20              0.0000000000
      2646        26  POPC      H15C           19.2735942684        9.1663924419       22.4573520189  MEMB      20              0.0000000000
      2647        26  POPC      C11            19.5759690383       11.1346994470       18.9803817829  MEMB      20              0.0000000000
      2648        26  POPC      H11A           20.0550188804       11.2331176991       17.9704637137  MEMB      20              0.0000000000
      2649        26  POPC      H11B           20.3606519764       11.4107590192       19.7171875390  MEMB      20              0.0000000000
      2650        26  POPC      P              18.5950942258       13.4597556921       18.4204538333  MEMB      20              0.0000000000
      2651        26  POPC      O13            20.0335584037       13.8334562426       18.4467548328  MEMB      20              0.0000000000
      2652        26  POPC      O14            17.6681928410       14.3958234126       19.1178211279  MEMB      20              0.0000000000
      2653        26  POPC      O12            18.4473900422       12.0134713922       19.1082379644  MEMB      20              0.0000000000
      2654        26  POPC      O11            18.1597368097       13.1957790767       16.9181859272  MEMB      20              0.0000000000
      2655        26  POPC      C1             16.9451033308       13.6684119986       16.3468055931  MEMB      20              0.0000000000
      2656        26  POPC      HA             17.0574662267       13.6553554746       15.2382724724  MEMB      20              0.0000000000
      2657        26  POPC      HB             16.7236374685       14.7136702813       16.6525833553  MEMB      20              0.0000000000
      2658        26  POPC      C2             15.7651787072       12.7317388731       16.6830830357  MEMB      20              0.0000000000
      2659        26  POPC      HS             15.6370833644       12.7740299115       17.7929150018  MEMB      20              0.0000000000
      2660        26  POPC      O21            16.1105814562       11.4243155525       16.1920469638  MEMB      20              0.0000000000
      2661        26  POPC      C21            16.3821735786       10.5383826606       17.1350022544  MEMB      20              0.0000000000
      2662        26  POPC      O22            16.0422248193       10.6172230282       18.3062838538  MEMB      20              0.0000000000
      2663        26  POPC      C22            17.0272837648        9.2885060276       16.5196181861  MEMB      20              0.0000000000
      2664        26  POPC      H2R            16.3222347697        8.8736115400       15.7845469927  MEMB      20              0.0000000000
      2665        26  POPC      H2S            17.1184761639        8.5303279902       17.3279122441  MEMB      20              0.0000000000
      2666        26  POPC      C3             14.4147531012       13.1970294804       16.0671754493  MEMB      20              0.0000000000
      2667        26  POPC      HX             14.1824963050       14.1966517344       16.4910019089  MEMB      20              0.0000000000
      2668        26  POPC      HY             13.6230616456       12.5010343613       16.4287379674  MEMB      20              0.0000000000
      2669        26  POPC      O31            14.4758746908       13.3172853162       14.6308516030  MEMB      20              0.0000000000
      2670        26  POPC      C31            13.6914270122       12.4947410980       13.9319720554  MEMB      20              0.0000000000
      2671        26  POPC      O32            12.9125596725       11.6875284516       14.4047168640  MEMB      20              0.0000000000
      2672        26  POPC      C32            13.8540871934       12.7948228120       12.4442318001  MEMB      20              0.0000000000
      2673        26  POPC      H2X            13.7713728793       13.8939571586       12.3265734383  MEMB      20              0.0000000000
      2674        26  POPC      H2Y            12.9982048595       12.3206665336       11.9193815522  MEMB      20              0.0000000000
      2675        26  POPC      C23            18.3970952101        9.4958347632       15.8283838772  MEMB      20              0.0000000000
      2676        26  POPC      H3R            18.8548969172        8.4851841238       15.6953065319  MEMB      20              0.0000000000
      2677        26  POPC      H3S            19.0877872810       10.0997421154       16.4491259168  MEMB      20              0.0000000000
      2678        26  POPC      C24            18.2911584306       10.1425493524       14.4443814459  MEMB      20              0.0000000000
      2679        26  POPC      H4R            18.0061343271       11.2151371382       14.5439420645  MEMB      20              0.0000000000
      2680        26  POPC      H4S            17.4839514646        9.6434293228       13.8683110647  MEMB      20              0.0000000000
      2681        26  POPC      C25            19.5958074523       10.0272896710       13.6477660818  MEMB      20              0.0000000000
      2682        26  POPC      H5R            19.9578109725        8.9753471673       13.7146937500  MEMB      20              0.0000000000
      2683        26  POPC      H5S            20.3749736176       10.6790081786       14.1023327435  MEMB      20              0.0000000000
      2684        26  POPC      C26            19.4109222412       10.3710649972       12.1643134026  MEMB      20              0.0000000000
      2685        26  POPC      H6R            19.1216754502       11.4407669894       12.0595079923  MEMB      20              0.0000000000
      2686        26  POPC      H6S            18.5709258124        9.7608241105       11.7601755691  MEMB      20              0.0000000000
      2687        26  POPC      C27            20.6777824259       10.0978874733       11.3413562129  MEMB      20              0.0000000000
      2688        26  POPC      H7R            21.1037498838        9.1142419321       11.6462507092  MEMB      20              0.0000000000
      2689        26  POPC      H7S            21.4331629681       10.8742811145       11.5993323604  MEMB      20              0.0000000000
      2690        26  POPC      C28            20.4268664025       10.1180074729        9.8199472638  MEMB      20              0.0000000000
      2691        26  POPC      H8R            21.4160424738       10.1499669136        9.3105484786  MEMB      20              0.0000000000
      2692        26  POPC      H8S            19.8947794854       11.0608702703        9.5610201318  MEMB      20              0.0000000000
      2693        26  POPC      C29            19.6771572409        8.8892620036        9.3631697362  MEMB      20              0.0000000000
      2694        26  POPC      H91            19.9838456120        7.9652891142        9.8732939325  MEMB      20              0.0000000000
      2695        26  POPC      C210           18.6731714067        8.8009902936        8.4727922031  MEMB      20              0.0000000000
      2696        26  POPC      H101           18.2564716612        7.8037298173        8.2650348275  MEMB      20              0.0000000000
      2697        26  POPC      C211           18.0238571637        9.9126318141        7.6875374509  MEMB      20              0.0000000000
      2698        26  POPC      H11R           18.2632281613        9.7995025461        6.6078186868  MEMB      20              0.0000000000
      2699        26  POPC      H11S           18.4072114554       10.9095896951        7.9944052466  MEMB      20              0.0000000000
      2700        26  POPC      C212           16.4899087171        9.9420541876        7.8500860976  MEMB      20              0.0000000000
      2701        26  POPC      H12R           16.0848700336       10.7561856527        7.2077159588  MEMB      20              0.0000000000
      2702        26  POPC      H12S           16.2472247901       10.2070349328        8.9052993410  MEMB      20              0.0000000000
      2703        26  POPC      C213           15.7598895982        8.6320736981        7.4921129692  MEMB      20              0.0000000000
      2704        26  POPC      H13R           14.6696053130        8.8061893894        7.6148643764  MEMB      20              0.0000000000
      2705        26  POPC      H13S           16.0409289501        7.8384583436        8.2179454559  MEMB      20              0.0000000000
      2706        26  POPC      C214           16.0189574832        8.1288249156        6.0650095862  MEMB      20              0.0000000000
      2707        26  POPC      H14R           17.1036984713        7.9201434428        5.9367874754  MEMB      20              0.0000000000
      2708        26  POPC      H14S           15.7350312545        8.9341887285        5.3521283871  MEMB      20              0.0000000000
      2709        26  POPC      C215           15.2248710148        6.8586369181        5.7237399166  MEMB      20              0.0000000000
      2710        26  POPC      H15R           14.1416772059        7.1053832633        5.7094292405  MEMB      20              0.0000000000
      2711        26  POPC      H15S           15.3779611814        6.1039227805        6.5282047029  MEMB      20              0.0000000000
      2712        26  POPC      C216           15.6045435263        6.2172766343        4.3770343507  MEMB      20              0.0000000000
      2713        26  POPC      H16R           14.8340532588        5.4542867400        4.1267271503  MEMB      20              0.0000000000
      2714        26  POPC      H16S           16.5786827810        5.6904914041        4.4927388907  MEMB      20              0.0000000000
      2715        26  POPC      C217           15.7260668342        7.2007954055        3.2043800375  MEMB      20              0.0000000000
      2716        26  POPC      H17R           16.5459114855        7.9226845767        3.4217911772  MEMB      20              0.0000000000
      2717        26  POPC      H17S           14.7800624770        7.7801768385        3.1162493923  MEMB      20              0.0000000000
      2718        26  POPC      C218           16.0243588329        6.5136675554        1.8681134635  MEMB      20              0.0000000000
      2719        26  POPC      H18R           15.1488521933        5.9160148794        1.5369340353  MEMB      20              0.0000000000
      2720        26  POPC      H18S           16.8979651110        5.8341325857        1.9655807466  MEMB      20              0.0000000000
      2721        26  POPC      H18T           16.2558156778        7.2661335175        1.0857267985  MEMB      20              0.0000000000
      2722        26  POPC      C33            15.1879866043       12.2818377295       11.8511776076  MEMB      20              0.0000000000
      2723        26  POPC      H3X            15.1673603657       11.1701232038       11.8214281588  MEMB      20              0.0000000000
      2724        26  POPC      H3Y            16.0431545465       12.5664795486       12.5060626218  MEMB      20              0.0000000000
      2725        26  POPC      C34            15.4597713766       12.7818081603       10.4197119242  MEMB      20              0.0000000000
      2726        26  POPC      H4X            14.6364270992       12.4401118804        9.7527043081  MEMB      20              0.0000000000
      2727        26  POPC      H4Y            16.3977069763       12.3020431762       10.0584145373  MEMB      20              0.0000000000
      2728        26  POPC      C35            15.6106138411       14.3059932126       10.2917271115  MEMB      20              0.0000000000
      2729        26  POPC      H5X            14.6305919895       14.7838315639       10.5104893048  MEMB      20              0.0000000000
      2730        26  POPC      H5Y            15.8743472165       14.5680991561        9.2437234151  MEMB      20              0.0000000000
      2731        26  POPC      C36            16.6614084389       14.9153925052       11.2287837654  MEMB      20              0.0000000000
      2732        26  POPC      H6X            16.4364211154       14.6348558993       12.2811836516  MEMB      20              0.0000000000
      2733        26  POPC      H6Y            16.5634259695       16.0204202658       11.1665642056  MEMB      20              0.0000000000
      2734        26  POPC      C37            18.1083533234       14.5282999822       10.8879016603  MEMB      20              0.0000000000
      2735        26  POPC      H7X            18.2342596472       13.4240353195       10.9013247955  MEMB      20              0.0000000000
      2736        26  POPC      H7Y            18.7556282480       14.9287420269       11.6999993389  MEMB      20              0.0000000000
      2737        26  POPC      C38            18.5976606531       15.1166571676        9.5507161124  MEMB      20              0.0000000000
      2738        26  POPC      H8X            19.6226507372       15.5247560266        9.7061240344  MEMB      20              0.0000000000
      2739        26  POPC      H8Y            17.9529938746       15.9739704265        9.2552402040  MEMB      20              0.0000000000
      2740        26  POPC      C39            18.6592392481       14.0987347085        8.3982987168  MEMB      20              0.0000000000
      2741        26  POPC      H9X            17.9403365112       14.4056245330        7.6061539077  MEMB      20              0.0000000000
      2742        26  POPC      H9Y            18.3426474438       13.0969161742        8.7628366576  MEMB      20              0.0000000000
      2743        26  POPC      C310           20.0728758544       13.9857989480        7.8048730390  MEMB      20              0.0000000000
      2744        26  POPC      H10X           20.7898601677       13.7889509978        8.6343941362  MEMB      20              0.0000000000
      2745        26  POPC      H10Y           20.3460942903       14.9639451745        7.3531651472  MEMB      20              0.0000000000
      2746        26  POPC      C311           20.2496851852       12.8796913865        6.7503716554  MEMB      20              0.0000000000
      2747        26  POPC      H11X           20.2034116602       11.8893761872        7.2544639399  MEMB      20              0.0000000000
      2748        26  POPC      H11Y           21.2671855996       12.9713282076        6.3070855770  MEMB      20              0.0000000000
      2749        26  POPC      C312           19.2091511080       12.9093325172        5.6202421226  MEMB      20              0.0000000000
      2750        26  POPC      H12X           19.2052800871       13.9153645175        5.1443263051  MEMB      20              0.0000000000
      2751        26  POPC      H12Y           18.2019771223       12.7344259203        6.0593661801  MEMB      20              0.0000000000
      2752        26  POPC      C313           19.4855766817       11.8452809292        4.5463552016  MEMB      20              0.0000000000
      2753        26  POPC      H13X           19.5668197600       10.8475318240        5.0327796880  MEMB      20              0.0000000000
      2754        26  POPC      H13Y           20.4701470761       12.0670091239        4.0741837778  MEMB      20              0.0000000000
      2755        26  POPC      C314           18.4094585797       11.7717637868        3.4486911546  MEMB      20              0.0000000000
      2756        26  POPC      H14X           18.7706338057       11.0725978594        2.6605286390  MEMB      20              0.0000000000
      2757        26  POPC      H14Y           18.2799460578       12.7745690859        2.9866043950  MEMB      20              0.0000000000
      2758        26  POPC      C315           17.0477778917       11.2638862024        3.9444412260  MEMB      20              0.0000000000
      2759        26  POPC      H15X           16.6012424212       12.0137447494        4.6356876943  MEMB      20              0.0000000000
      2760        26  POPC      H15Y           17.2210585756       10.3334233513        4.5307334360  MEMB      20              0.0000000000
      2761        26  POPC      C316           16.0556558216       10.9577338373        2.8167042483  MEMB      20              0.0000000000
      2762        26  POPC      H16X           16.4609368372       10.1648534617        2.1508499921  MEMB      20              0.0000000000
      2763        26  POPC      H16Y           15.8583292409       11.8654982076        2.2078026914  MEMB      20              0.0000000000
      2764        26  POPC      H16Z           15.0908557759       10.5984839489        3.2356596389  MEMB      20              0.0000000000
      2765        27  POPC      N             -20.1524683515       -5.3870935300       20.6137403112  MEMB      21              0.0000000000
      2766        27  POPC      C12           -21.1627080288       -5.0227266651       19.5251609978  MEMB      21              0.0000000000
      2767        27  POPC      H12A          -20.7611752032       -4.1953794587       18.9519428289  MEMB      21              0.0000000000
      2768        27  POPC      H12B          -22.1010418141       -4.6952716954       19.9535672248  MEMB      21              0.0000000000
      2769        27  POPC      C13           -18.8013795154       -5.4877104655       19.9741488034  MEMB      21              0.0000000000
      2770        27  POPC      H13A          -18.4716743876       -4.5249623322       19.6130483083  MEMB      21              0.0000000000
      2771        27  POPC      H13B          -18.0708165526       -5.8889033729       20.6551350240  MEMB      21              0.0000000000
      2772        27  POPC      H13C          -18.8979969522       -6.1769588975       19.1286195475  MEMB      21              0.0000000000
      2773        27  POPC      C14           -20.0826905189       -4.4144180364       21.7336125601  MEMB      21              0.0000000000
      2774        27  POPC      H14A          -19.3344237606       -4.7085968772       22.4677465359  MEMB      21              0.0000000000
      2775        27  POPC      H14B          -19.8523780315       -3.4140343951       21.3947520710  MEMB      21              0.0000000000
      2776        27  POPC      H14C          -21.0209489276       -4.3563554010       22.2856698837  MEMB      21              0.0000000000
      2777        27  POPC      C15           -20.4997696124       -6.7179035291       21.2104854683  MEMB      21              0.0000000000
      2778        27  POPC      H15A          -21.4667050980       -6.6975121444       21.6973570370  MEMB      21              0.0000000000
      2779        27  POPC      H15B          -19.7737259418       -7.0383019417       21.9459839503  MEMB      21              0.0000000000
      2780        27  POPC      H15C          -20.5460251839       -7.4859464856       20.4329140366  MEMB      21              0.0000000000
      2781        27  POPC      C11           -21.5437352601       -6.1409753113       18.5143573460  MEMB      21              0.0000000000
      2782        27  POPC      H11A          -22.0407044634       -5.6919593212       17.6226790005  MEMB      21              0.0000000000
      2783        27  POPC      H11B          -22.3133633632       -6.7768847226       19.0230799508  MEMB      21              0.0000000000
      2784        27  POPC      P             -20.4728510030       -8.4545157706       17.9813708810  MEMB      21              0.0000000000
      2785        27  POPC      O13           -21.0259879011       -8.9850220131       19.2543526155  MEMB      21              0.0000000000
      2786        27  POPC      O14           -19.1390928084       -8.9648948085       17.5887659181  MEMB      21              0.0000000000
      2787        27  POPC      O12           -20.3940977876       -6.8731220873       18.0884818982  MEMB      21              0.0000000000
      2788        27  POPC      O11           -21.5274314650       -8.6968964895       16.7999160838  MEMB      21              0.0000000000
      2789        27  POPC      C1            -21.6667153873       -9.9937115925       16.1944639277  MEMB      21              0.0000000000
      2790        27  POPC      HA            -22.6547608817      -10.4057807700       16.4920578003  MEMB      21              0.0000000000
      2791        27  POPC      HB            -20.8937057040      -10.7289026898       16.5284489217  MEMB      21              0.0000000000
      2792        27  POPC      C2            -21.6391847234       -9.9661122729       14.6287081674  MEMB      21              0.0000000000
      2793        27  POPC      HS            -22.4575558921      -10.6331846983       14.2724000155  MEMB      21              0.0000000000
      2794        27  POPC      O21           -20.3789189002      -10.4967238965       14.1849089223  MEMB      21              0.0000000000
      2795        27  POPC      C21           -20.2736936863      -10.7037661239       12.8731970376  MEMB      21              0.0000000000
      2796        27  POPC      O22           -21.0578349970      -11.3327535343       12.1868018957  MEMB      21              0.0000000000
      2797        27  POPC      C22           -19.1224298090       -9.8391119317       12.3574455294  MEMB      21              0.0000000000
      2798        27  POPC      H2R           -18.6806106186       -9.2845717144       13.2112903708  MEMB      21              0.0000000000
      2799        27  POPC      H2S           -19.5534451063       -9.0903986918       11.6628128257  MEMB      21              0.0000000000
      2800        27  POPC      C3            -21.8650343891       -8.5413201066       14.0200125148  MEMB      21              0.0000000000
      2801        27  POPC      HX            -20.9729425754       -7.9241094076       14.2704585467  MEMB      21              0.0000000000
      2802        27  POPC      HY            -22.7480270110       -8.0547621101       14.4760208585  MEMB      21              0.0000000000
      2803        27  POPC      O31           -22.0239810788       -8.6649036465       12.5992765482  MEMB      21              0.0000000000
      2804        27  POPC      C31           -22.4652516655       -7.6619051536       11.8799610526  MEMB      21              0.0000000000
      2805        27  POPC      O32           -22.8145441642       -6.5695813297       12.2868940524  MEMB      21              0.0000000000
      2806        27  POPC      C32           -22.5015014843       -8.1457938090       10.4221803815  MEMB      21              0.0000000000
      2807        27  POPC      H2X           -23.4722838244       -8.6742934295       10.3073583132  MEMB      21              0.0000000000
      2808        27  POPC      H2Y           -21.6936910357       -8.8888804723       10.2606615709  MEMB      21              0.0000000000
      2809        27  POPC      C23           -18.0205022007      -10.6451554946       11.6535511945  MEMB      21              0.0000000000
      2810        27  POPC      H3R           -18.4335639891      -11.1393192429       10.7478339745  MEMB      21              0.0000000000
      2811        27  POPC      H3S           -17.6722250940      -11.4607799360       12.3277457256  MEMB      21              0.0000000000
      2812        27  POPC      C24           -16.8105202276       -9.7631419324       11.2957301572  MEMB      21              0.0000000000
      2813        27  POPC      H4R           -15.9977881224      -10.4222366224       10.9135800468  MEMB      21              0.0000000000
      2814        27  POPC      H4S           -16.4361322981       -9.2655595908       12.2109103114  MEMB      21              0.0000000000
      2815        27  POPC      C25           -17.0874547747       -8.6729888769       10.2493200327  MEMB      21              0.0000000000
      2816        27  POPC      H5R           -16.1131734930       -8.2032166660        9.9770910788  MEMB      21              0.0000000000
      2817        27  POPC      H5S           -17.7481620738       -7.8778034979       10.6563546592  MEMB      21              0.0000000000
      2818        27  POPC      C26           -17.7091511398       -9.3034030050        9.0127398227  MEMB      21              0.0000000000
      2819        27  POPC      H6R           -18.7884117317       -9.5270570490        9.1693718506  MEMB      21              0.0000000000
      2820        27  POPC      H6S           -17.1706292068      -10.2723604157        8.9010451918  MEMB      21              0.0000000000
      2821        27  POPC      C27           -17.5059795254       -8.5533465450        7.6985109612  MEMB      21              0.0000000000
      2822        27  POPC      H7R           -16.5811885357       -7.9345359390        7.7497476870  MEMB      21              0.0000000000
      2823        27  POPC      H7S           -18.3603184637       -7.8673821367        7.5171878283  MEMB      21              0.0000000000
      2824        27  POPC      C28           -17.3504677497       -9.5456550821        6.5341231113  MEMB      21              0.0000000000
      2825        27  POPC      H8R           -16.3210794029       -9.9614898274        6.5979561006  MEMB      21              0.0000000000
      2826        27  POPC      H8S           -17.4138342591       -8.9718868617        5.5838565770  MEMB      21              0.0000000000
      2827        27  POPC      C29           -18.3164323690      -10.7058545836        6.5857679465  MEMB      21              0.0000000000
      2828        27  POPC      H91           -18.0439738201      -11.5036132818        7.2928986017  MEMB      21              0.0000000000
      2829        27  POPC      C210          -19.4530106057      -10.8363377043        5.8954968783  MEMB      21              0.0000000000
      2830        27  POPC      H101          -20.0688033956      -11.7357353752        6.0469479118  MEMB      21              0.0000000000
      2831        27  POPC      C211          -19.9880349393       -9.8308595200        4.9188083792  MEMB      21              0.0000000000
      2832        27  POPC      H11R          -19.1817613467       -9.1965501524        4.4882765872  MEMB      21              0.0000000000
      2833        27  POPC      H11S          -20.6873808520       -9.1450171055        5.4401013549  MEMB      21              0.0000000000
      2834        27  POPC      C212          -20.7125117878      -10.5104315298        3.7513159683  MEMB      21              0.0000000000
      2835        27  POPC      H12R          -20.0251817395      -11.2280005491        3.2520497332  MEMB      21              0.0000000000
      2836        27  POPC      H12S          -20.9522832484       -9.7333285265        2.9987035456  MEMB      21              0.0000000000
      2837        27  POPC      C213          -22.0158898456      -11.2163659489        4.1517294590  MEMB      21              0.0000000000
      2838        27  POPC      H13R          -21.7834061193      -12.0822234941        4.8059717965  MEMB      21              0.0000000000
      2839        27  POPC      H13S          -22.4954704613      -11.6270919657        3.2359003095  MEMB      21              0.0000000000
      2840        27  POPC      C214          -23.0269485056      -10.3339443193        4.8972674608  MEMB      21              0.0000000000
      2841        27  POPC      H14R          -22.6225435343      -10.0432968664        5.8915014622  MEMB      21              0.0000000000
      2842        27  POPC      H14S          -23.9146926613      -10.9720547805        5.0941343301  MEMB      21              0.0000000000
      2843        27  POPC      C215          -23.4603772514       -9.0648805444        4.1413270295  MEMB      21              0.0000000000
      2844        27  POPC      H15R          -22.6642019543       -8.2953154217        4.2000908165  MEMB      21              0.0000000000
      2845        27  POPC      H15S          -24.3536436053       -8.6444717649        4.6557744726  MEMB      21              0.0000000000
      2846        27  POPC      C216          -23.7969906948       -9.3194879864        2.6660935186  MEMB      21              0.0000000000
      2847        27  POPC      H16R          -24.2348495164      -10.3328511355        2.5822009829  MEMB      21              0.0000000000
      2848        27  POPC      H16S          -22.8699430667       -9.3235484294        2.0563825913  MEMB      21              0.0000000000
      2849        27  POPC      C217          -24.7831692538       -8.3066677322        2.0849305157  MEMB      21              0.0000000000
      2850        27  POPC      H17R          -24.3449550007       -7.2882429312        2.1576915214  MEMB      21              0.0000000000
      2851        27  POPC      H17S          -25.7134437680       -8.3230188652        2.6988953556  MEMB      21              0.0000000000
      2852        27  POPC      C218          -25.1349404539       -8.5940037641        0.6295992378  MEMB      21              0.0000000000
      2853        27  POPC      H18R          -25.8888577891       -7.8718469290        0.2668855257  MEMB      21              0.0000000000
      2854        27  POPC      H18S          -25.5731752253       -9.6056469602        0.5347649154  MEMB      21              0.0000000000
      2855        27  POPC      H18T          -24.2378373669       -8.5476369251       -0.0215936366  MEMB      21              0.0000000000
      2856        27  POPC      C33           -22.4110498364       -7.0303525052        9.3556383854  MEMB      21              0.0000000000
      2857        27  POPC      H3X           -22.9300585326       -6.1122065546        9.6978163063  MEMB      21              0.0000000000
      2858        27  POPC      H3Y           -22.9425924392       -7.4045930079        8.4492407028  MEMB      21              0.0000000000
      2859        27  POPC      C34           -20.9860255185       -6.6476493577        8.9285543543  MEMB      21              0.0000000000
      2860        27  POPC      H4X           -20.4062089687       -7.5627531299        8.6713400442  MEMB      21              0.0000000000
      2861        27  POPC      H4Y           -20.4782876290       -6.1542426851        9.7869547936  MEMB      21              0.0000000000
      2862        27  POPC      C35           -20.9832881942       -5.6940917115        7.7158744507  MEMB      21              0.0000000000
      2863        27  POPC      H5X           -20.0415263889       -5.0983988119        7.7224925037  MEMB      21              0.0000000000
      2864        27  POPC      H5Y           -21.8333211283       -4.9809851542        7.7972219302  MEMB      21              0.0000000000
      2865        27  POPC      C36           -21.0481021036       -6.4587209111        6.3850001684  MEMB      21              0.0000000000
      2866        27  POPC      H6X           -21.8816520473       -7.1953498001        6.4043863353  MEMB      21              0.0000000000
      2867        27  POPC      H6Y           -20.1013089156       -7.0388673533        6.2927256156  MEMB      21              0.0000000000
      2868        27  POPC      C37           -21.2076186120       -5.5776569908        5.1308280643  MEMB      21              0.0000000000
      2869        27  POPC      H7X           -20.6694127470       -4.6145989830        5.2669925073  MEMB      21              0.0000000000
      2870        27  POPC      H7Y           -22.2884538945       -5.3519364946        4.9941633827  MEMB      21              0.0000000000
      2871        27  POPC      C38           -20.6552543304       -6.2881529663        3.8829484084  MEMB      21              0.0000000000
      2872        27  POPC      H8X           -20.7218988846       -7.3829517980        4.0615643711  MEMB      21              0.0000000000
      2873        27  POPC      H8Y           -19.5746038845       -6.0544799560        3.7648615159  MEMB      21              0.0000000000
      2874        27  POPC      C39           -21.4058053317       -6.0220718451        2.5674047037  MEMB      21              0.0000000000
      2875        27  POPC      H9X           -21.2532234703       -4.9704896074        2.2461971013  MEMB      21              0.0000000000
      2876        27  POPC      H9Y           -22.4936263227       -6.1822778398        2.7287383183  MEMB      21              0.0000000000
      2877        27  POPC      C310          -20.9162080474       -6.9902401474        1.4772208415  MEMB      21              0.0000000000
      2878        27  POPC      H10X          -21.0500043615       -8.0298874748        1.8399229711  MEMB      21              0.0000000000
      2879        27  POPC      H10Y          -19.8274167391       -6.8394818220        1.3377543337  MEMB      21              0.0000000000
      2880        27  POPC      C311          -21.6162433927       -6.8901563111        0.1153407419  MEMB      21              0.0000000000
      2881        27  POPC      H11X          -21.5582159030       -5.8555120959       -0.2719667506  MEMB      21              0.0000000000
      2882        27  POPC      H11Y          -22.6931052189       -7.1132885162        0.2538184505  MEMB      21              0.0000000000
      2883        27  POPC      C312          -21.0068975608       -7.8781704244       -0.9009346159  MEMB      21              0.0000000000
      2884        27  POPC      H12X          -21.5606412747       -8.8383744779       -0.7907821677  MEMB      21              0.0000000000
      2885        27  POPC      H12Y          -19.9526931753       -8.0847944593       -0.6233514908  MEMB      21              0.0000000000
      2886        27  POPC      C313          -21.0718944707       -7.4403905678       -2.3788322065  MEMB      21              0.0000000000
      2887        27  POPC      H13X          -21.9441247930       -6.7678660843       -2.5160891407  MEMB      21              0.0000000000
      2888        27  POPC      H13Y          -21.2444033079       -8.3416054705       -3.0079362535  MEMB      21              0.0000000000
      2889        27  POPC      C314          -19.8267709377       -6.7258050701       -2.9410678882  MEMB      21              0.0000000000
      2890        27  POPC      H14X          -19.6274054985       -5.8177507317       -2.3455050566  MEMB      21              0.0000000000
      2891        27  POPC      H14Y          -20.0609424905       -6.3862521998       -3.9751274383  MEMB      21              0.0000000000
      2892        27  POPC      C315          -18.5489098243       -7.5741295228       -2.9954114633  MEMB      21              0.0000000000
      2893        27  POPC      H15X          -18.7040506430       -8.4074083105       -3.7155507331  MEMB      21              0.0000000000
      2894        27  POPC      H15Y          -18.3599258595       -8.0281406682       -1.9986834135  MEMB      21              0.0000000000
      2895        27  POPC      C316          -17.3039534160       -6.7748490518       -3.3936746360  MEMB      21              0.0000000000
      2896        27  POPC      H16X          -16.4055692145       -7.4288464657       -3.3755605564  MEMB      21              0.0000000000
      2897        27  POPC      H16Y          -17.1371962700       -5.9349364043       -2.6851106313  MEMB      21              0.0000000000
      2898        27  POPC      H16Z          -17.4126573642       -6.3535977371       -4.4154600293  MEMB      21              0.0000000000
      2899        28  POPC      N              -3.7430186982      -22.8168027177       18.0119872787  MEMB      22              0.0000000000
      2900        28  POPC      C12            -2.8615000918      -21.5811360112       18.0583873581  MEMB      22              0.0000000000
      2901        28  POPC      H12A           -2.9386556422      -21.0376659951       17.1254881794  MEMB      22              0.0000000000
      2902        28  POPC      H12B           -1.8082755547      -21.8704208468       18.1010191350  MEMB      22              0.0000000000
      2903        28  POPC      C13            -5.1632185009      -22.3553660017       17.9567194550  MEMB      22              0.0000000000
      2904        28  POPC      H13A           -5.3789929550      -21.8239341354       17.0360587889  MEMB      22              0.0000000000
      2905        28  POPC      H13B           -5.8448963838      -23.1924541215       18.0417081683  MEMB      22              0.0000000000
      2906        28  POPC      H13C           -5.3377444524      -21.6703984701       18.7774011604  MEMB      22              0.0000000000
      2907        28  POPC      C14            -3.4597234079      -23.6491264767       16.8033626320  MEMB      22              0.0000000000
      2908        28  POPC      H14A           -2.4536254190      -24.0542827990       16.8343842556  MEMB      22              0.0000000000
      2909        28  POPC      H14B           -4.1599869923      -24.4615333554       16.7028552259  MEMB      22              0.0000000000
      2910        28  POPC      H14C           -3.4792263924      -23.0559993529       15.8864205843  MEMB      22              0.0000000000
      2911        28  POPC      C15            -3.5298772924      -23.6228035465       19.2523962114  MEMB      22              0.0000000000
      2912        28  POPC      H15A           -3.5527771096      -22.9523921845       20.1115825018  MEMB      22              0.0000000000
      2913        28  POPC      H15B           -2.5638404478      -24.1150228816       19.2725210320  MEMB      22              0.0000000000
      2914        28  POPC      H15C           -4.2910643005      -24.3707046137       19.3847535617  MEMB      22              0.0000000000
      2915        28  POPC      C11            -3.0755424343      -20.5889305503       19.2408969701  MEMB      22              0.0000000000
      2916        28  POPC      H11A           -4.1536182372      -20.3367706825       19.3378892410  MEMB      22              0.0000000000
      2917        28  POPC      H11B           -2.5654100135      -19.6309319771       18.9614499656  MEMB      22              0.0000000000
      2918        28  POPC      P              -1.0291129044      -20.9222358272       20.8079992955  MEMB      22              0.0000000000
      2919        28  POPC      O13            -0.5893326843      -21.9739549287       21.7547740295  MEMB      22              0.0000000000
      2920        28  POPC      O14            -0.7865581610      -19.4997619964       21.1168755796  MEMB      22              0.0000000000
      2921        28  POPC      O12            -2.5924579994      -21.1088589476       20.4976755337  MEMB      22              0.0000000000
      2922        28  POPC      O11            -0.4683258628      -21.2418460171       19.3781459480  MEMB      22              0.0000000000
      2923        28  POPC      C1              0.2326235493      -22.4296353093       19.0400447700  MEMB      22              0.0000000000
      2924        28  POPC      HA             -0.3401828405      -23.3293975091       19.3628477341  MEMB      22              0.0000000000
      2925        28  POPC      HB              1.2209263320      -22.4566830969       19.5556686346  MEMB      22              0.0000000000
      2926        28  POPC      C2              0.4778402023      -22.4944758081       17.5008792826  MEMB      22              0.0000000000
      2927        28  POPC      HS              1.5637197582      -22.3403938503       17.3280665328  MEMB      22              0.0000000000
      2928        28  POPC      O21            -0.3298484516      -21.5167761887       16.8089583285  MEMB      22              0.0000000000
      2929        28  POPC      C21             0.3483272156      -20.5011444851       16.2761871458  MEMB      22              0.0000000000
      2930        28  POPC      O22             1.5351553641      -20.2921611726       16.4009595581  MEMB      22              0.0000000000
      2931        28  POPC      C22            -0.5950233262      -19.6677074855       15.3945041454  MEMB      22              0.0000000000
      2932        28  POPC      H2R            -1.0714789985      -18.9119236309       16.0498779095  MEMB      22              0.0000000000
      2933        28  POPC      H2S            -1.3770527504      -20.3446768257       14.9912904203  MEMB      22              0.0000000000
      2934        28  POPC      C3              0.1599218898      -23.9077601244       16.9308355840  MEMB      22              0.0000000000
      2935        28  POPC      HX             -0.8778030174      -24.1967721184       17.1572760274  MEMB      22              0.0000000000
      2936        28  POPC      HY              0.8121493343      -24.6168001118       17.4937262370  MEMB      22              0.0000000000
      2937        28  POPC      O31             0.4507212824      -24.0300345172       15.5231945025  MEMB      22              0.0000000000
      2938        28  POPC      C31            -0.3183861059      -23.3997433103       14.6315965823  MEMB      22              0.0000000000
      2939        28  POPC      O32            -1.4487830275      -22.9899532309       14.8291643683  MEMB      22              0.0000000000
      2940        28  POPC      C32             0.4424684146      -23.3101388562       13.3021327032  MEMB      22              0.0000000000
      2941        28  POPC      H2X             0.8733315168      -24.3026617001       13.0859047429  MEMB      22              0.0000000000
      2942        28  POPC      H2Y             1.2914144491      -22.6128489579       13.4756359847  MEMB      22              0.0000000000
      2943        28  POPC      C23             0.1369204487      -18.9710260004       14.2138293068  MEMB      22              0.0000000000
      2944        28  POPC      H3R             0.5818567207      -19.7343799483       13.5364240229  MEMB      22              0.0000000000
      2945        28  POPC      H3S             0.9757623480      -18.3552052031       14.6130442098  MEMB      22              0.0000000000
      2946        28  POPC      C24            -0.7995403816      -18.0749135457       13.3945077029  MEMB      22              0.0000000000
      2947        28  POPC      H4R            -1.2550785064      -17.3396189665       14.0962067908  MEMB      22              0.0000000000
      2948        28  POPC      H4S            -1.6163143855      -18.6941155859       12.9656365327  MEMB      22              0.0000000000
      2949        28  POPC      C25            -0.1403242640      -17.2858792427       12.2501362300  MEMB      22              0.0000000000
      2950        28  POPC      H5R             0.9028868471      -16.9994483427       12.5003062514  MEMB      22              0.0000000000
      2951        28  POPC      H5S            -0.7214951843      -16.3375689481       12.1462447570  MEMB      22              0.0000000000
      2952        28  POPC      C26            -0.1996812688      -17.9905356785       10.8834984430  MEMB      22              0.0000000000
      2953        28  POPC      H6R            -1.0790197631      -18.6730285602       10.8553236762  MEMB      22              0.0000000000
      2954        28  POPC      H6S             0.7064308936      -18.6188169460       10.7389385057  MEMB      22              0.0000000000
      2955        28  POPC      C27            -0.3640993463      -16.9923854465        9.7187281167  MEMB      22              0.0000000000
      2956        28  POPC      H7R             0.5498322574      -16.3633386501        9.6391267674  MEMB      22              0.0000000000
      2957        28  POPC      H7S            -1.2135128122      -16.3119524020        9.9565318716  MEMB      22              0.0000000000
      2958        28  POPC      C28            -0.6763547982      -17.6538278980        8.3624627499  MEMB      22              0.0000000000
      2959        28  POPC      H8R            -0.8647806266      -16.8594042981        7.6069370063  MEMB      22              0.0000000000
      2960        28  POPC      H8S            -1.6165877262      -18.2372632547        8.4488898836  MEMB      22              0.0000000000
      2961        28  POPC      C29             0.4798758989      -18.5047470235        7.9218753142  MEMB      22              0.0000000000
      2962        28  POPC      H91             1.4227705826      -17.9513196290        7.8329137349  MEMB      22              0.0000000000
      2963        28  POPC      C210            0.4515926275      -19.8064907997        7.5940670812  MEMB      22              0.0000000000
      2964        28  POPC      H101            1.3839272342      -20.3039504261        7.2827331430  MEMB      22              0.0000000000
      2965        28  POPC      C211           -0.7698434172      -20.6848108989        7.5977289011  MEMB      22              0.0000000000
      2966        28  POPC      H11R           -1.4546763812      -20.4311735475        8.4383404340  MEMB      22              0.0000000000
      2967        28  POPC      H11S           -0.4771034617      -21.7490934505        7.7200148352  MEMB      22              0.0000000000
      2968        28  POPC      C212           -1.5273859745      -20.5197613107        6.2691969670  MEMB      22              0.0000000000
      2969        28  POPC      H12R           -1.7813793527      -19.4455401127        6.1210125453  MEMB      22              0.0000000000
      2970        28  POPC      H12S           -2.4930103195      -21.0690328283        6.3216233377  MEMB      22              0.0000000000
      2971        28  POPC      C213           -0.7401547944      -21.0322134344        5.0539591799  MEMB      22              0.0000000000
      2972        28  POPC      H13R           -0.7239241309      -22.1434485382        5.0910517557  MEMB      22              0.0000000000
      2973        28  POPC      H13S            0.3188298849      -20.6974575928        5.0907006506  MEMB      22              0.0000000000
      2974        28  POPC      C214           -1.3445315309      -20.5573992664        3.7283370339  MEMB      22              0.0000000000
      2975        28  POPC      H14R           -2.4524247768      -20.6120953972        3.7867663989  MEMB      22              0.0000000000
      2976        28  POPC      H14S           -1.0155211413      -21.2509365662        2.9234260568  MEMB      22              0.0000000000
      2977        28  POPC      C215           -0.8857392740      -19.1388741213        3.3574156067  MEMB      22              0.0000000000
      2978        28  POPC      H15R            0.2213154122      -19.1689860336        3.2283087809  MEMB      22              0.0000000000
      2979        28  POPC      H15S           -1.1051708508      -18.4313421132        4.1872790597  MEMB      22              0.0000000000
      2980        28  POPC      C216           -1.5160973221      -18.6162561014        2.0602110181  MEMB      22              0.0000000000
      2981        28  POPC      H16R           -1.5094157710      -19.4220880202        1.2940451685  MEMB      22              0.0000000000
      2982        28  POPC      H16S           -0.8973118563      -17.7752783083        1.6698771244  MEMB      22              0.0000000000
      2983        28  POPC      C217           -2.9527631181      -18.1137557830        2.2410880313  MEMB      22              0.0000000000
      2984        28  POPC      H17R           -2.9561162575      -17.2707686730        2.9707131237  MEMB      22              0.0000000000
      2985        28  POPC      H17S           -3.5760292644      -18.9308548193        2.6719919654  MEMB      22              0.0000000000
      2986        28  POPC      C218           -3.5725131033      -17.6529694877        0.9211149988  MEMB      22              0.0000000000
      2987        28  POPC      H18R           -3.5910842155      -18.4914349263        0.1913052808  MEMB      22              0.0000000000
      2988        28  POPC      H18S           -2.9775155188      -16.8249998391        0.4782510286  MEMB      22              0.0000000000
      2989        28  POPC      H18T           -4.6125703434      -17.2963973613        1.0797622110  MEMB      22              0.0000000000
      2990        28  POPC      C33            -0.3544955306      -22.7995328466       12.0719744818  MEMB      22              0.0000000000
      2991        28  POPC      H3X             0.4058233140      -22.3524409476       11.3836159399  MEMB      22              0.0000000000
      2992        28  POPC      H3Y            -1.0536045191      -21.9814048785       12.3459858284  MEMB      22              0.0000000000
      2993        28  POPC      C34            -1.0733601780      -23.8998677296       11.2657570828  MEMB      22              0.0000000000
      2994        28  POPC      H4X            -2.0332195189      -24.1632158094       11.7599606573  MEMB      22              0.0000000000
      2995        28  POPC      H4Y            -0.4367304119      -24.8145182131       11.2539961914  MEMB      22              0.0000000000
      2996        28  POPC      C35            -1.3100494517      -23.4687747253        9.8050848072  MEMB      22              0.0000000000
      2997        28  POPC      H5X            -0.3141114348      -23.3012229568        9.3338447041  MEMB      22              0.0000000000
      2998        28  POPC      H5Y            -1.8569365310      -22.4993648340        9.7919902997  MEMB      22              0.0000000000
      2999        28  POPC      C36            -2.0805212818      -24.4825386941        8.9403689258  MEMB      22              0.0000000000
      3000        28  POPC      H6X            -3.1045104813      -24.6102528832        9.3571693009  MEMB      22              0.0000000000
      3001        28  POPC      H6Y            -1.5665858246      -25.4693365848        8.9939008900  MEMB      22              0.0000000000
      3002        28  POPC      C37            -2.1749206361      -24.0539738644        7.4584655513  MEMB      22              0.0000000000
      3003        28  POPC      H7X            -1.1457050472      -24.0446949690        7.0326299961  MEMB      22              0.0000000000
      3004        28  POPC      H7Y            -2.5740964626      -23.0190596292        7.3934757804  MEMB      22              0.0000000000
      3005        28  POPC      C38            -3.0657249954      -24.9804132687        6.6136221560  MEMB      22              0.0000000000
      3006        28  POPC      H8X            -4.1220537807      -24.6381550067        6.6436549173  MEMB      22              0.0000000000
      3007        28  POPC      H8Y            -3.0358189213      -25.9876327219        7.0947438190  MEMB      22              0.0000000000
      3008        28  POPC      C39            -2.6120294159      -25.1802438933        5.1545906370  MEMB      22              0.0000000000
      3009        28  POPC      H9X            -3.0927999203      -26.1199804954        4.7944970632  MEMB      22              0.0000000000
      3010        28  POPC      H9Y            -1.5155716219      -25.3538359527        5.1266950545  MEMB      22              0.0000000000
      3011        28  POPC      C310           -2.9925298799      -24.0857874475        4.1408886245  MEMB      22              0.0000000000
      3012        28  POPC      H10X           -2.4439132723      -23.1499956712        4.3587615739  MEMB      22              0.0000000000
      3013        28  POPC      H10Y           -4.0794691905      -23.8690516495        4.2216847436  MEMB      22              0.0000000000
      3014        28  POPC      C311           -2.6759454496      -24.5643152021        2.7112645477  MEMB      22              0.0000000000
      3015        28  POPC      H11X           -3.2699497483      -25.4781611578        2.5143280445  MEMB      22              0.0000000000
      3016        28  POPC      H11Y           -1.6115158556      -24.8763873766        2.6644377573  MEMB      22              0.0000000000
      3017        28  POPC      C312           -2.9679617776      -23.5750643747        1.5720759905  MEMB      22              0.0000000000
      3018        28  POPC      H12X           -2.2190466733      -22.7621973813        1.6110153119  MEMB      22              0.0000000000
      3019        28  POPC      H12Y           -3.9620539071      -23.0996589268        1.7215145996  MEMB      22              0.0000000000
      3020        28  POPC      C313           -2.9478404558      -24.2805700766        0.2000547555  MEMB      22              0.0000000000
      3021        28  POPC      H13X           -3.9831702629      -24.6220199573       -0.0291369093  MEMB      22              0.0000000000
      3022        28  POPC      H13Y           -2.3105322814      -25.1903114995        0.2713874549  MEMB      22              0.0000000000
      3023        28  POPC      C314           -2.4029242986      -23.4718730245       -0.9909477678  MEMB      22              0.0000000000
      3024        28  POPC      H14X           -2.6783374010      -24.0199857167       -1.9222174926  MEMB      22              0.0000000000
      3025        28  POPC      H14Y           -1.2915931597      -23.4560538059       -0.9531935943  MEMB      22              0.0000000000
      3026        28  POPC      C315           -2.9236579571      -22.0349190386       -1.0801077751  MEMB      22              0.0000000000
      3027        28  POPC      H15X           -2.2054610240      -21.3481724524       -0.5791562163  MEMB      22              0.0000000000
      3028        28  POPC      H15Y           -3.8703958499      -21.9624629219       -0.5056797106  MEMB      22              0.0000000000
      3029        28  POPC      C316           -3.1628230295      -21.5579995671       -2.5132233461  MEMB      22              0.0000000000
      3030        28  POPC      H16X           -2.2676487831      -21.7290513819       -3.1470291483  MEMB      22              0.0000000000
      3031        28  POPC      H16Y           -3.3922695564      -20.4730243254       -2.5151901673  MEMB      22              0.0000000000
      3032        28  POPC      H16Z           -4.0244338415      -22.0901795935       -2.9653456008  MEMB      22              0.0000000000
      3033        29  POPC      N              16.7430462708      -12.7190422350       19.9780760772  MEMB      23              0.0000000000
      3034        29  POPC      C12            17.2818585875      -12.6950537696       18.5570215452  MEMB      23              0.0000000000
      3035        29  POPC      H12A           16.4778027910      -12.5191947752       17.8630939356  MEMB      23              0.0000000000
      3036        29  POPC      H12B           17.6730160281      -13.6913481477       18.3166853045  MEMB      23              0.0000000000
      3037        29  POPC      C13            15.3315062056      -13.2274266138       20.0151829674  MEMB      23              0.0000000000
      3038        29  POPC      H13A           14.6200692234      -12.6209195663       19.4790900347  MEMB      23              0.0000000000
      3039        29  POPC      H13B           15.2734893084      -14.2500424167       19.6521158537  MEMB      23              0.0000000000
      3040        29  POPC      H13C           14.9888842298      -13.3235739358       21.0491992018  MEMB      23              0.0000000000
      3041        29  POPC      C14            17.5986639535      -13.6441676704       20.8005795248  MEMB      23              0.0000000000
      3042        29  POPC      H14A           18.6581799342      -13.3738538878       20.7158729346  MEMB      23              0.0000000000
      3043        29  POPC      H14B           17.3241078105      -13.6146197820       21.8541189665  MEMB      23              0.0000000000
      3044        29  POPC      H14C           17.5006757144      -14.6672581136       20.4558999870  MEMB      23              0.0000000000
      3045        29  POPC      C15            16.8927080492      -11.3871700337       20.6228852136  MEMB      23              0.0000000000
      3046        29  POPC      H15A           17.9593234570      -11.1351999206       20.6383336670  MEMB      23              0.0000000000
      3047        29  POPC      H15B           16.5551147597      -11.4266631122       21.6513097653  MEMB      23              0.0000000000
      3048        29  POPC      H15C           16.3836470463      -10.6218151405       20.0702940081  MEMB      23              0.0000000000
      3049        29  POPC      C11            18.4439155680      -11.7266193772       18.2391657910  MEMB      23              0.0000000000
      3050        29  POPC      H11A           18.1176447520      -10.6709609053       18.3682476491  MEMB      23              0.0000000000
      3051        29  POPC      H11B           18.7254186469      -11.8277379899       17.1624498620  MEMB      23              0.0000000000
      3052        29  POPC      P              20.5477303852      -13.1780812547       18.7950815137  MEMB      23              0.0000000000
      3053        29  POPC      O13            20.8613370439      -13.6622862586       20.1613069156  MEMB      23              0.0000000000
      3054        29  POPC      O14            21.5835896998      -12.6539190882       17.8896068542  MEMB      23              0.0000000000
      3055        29  POPC      O12            19.5539160611      -11.9846220932       19.0922738869  MEMB      23              0.0000000000
      3056        29  POPC      O11            19.5892639813      -14.1930593736       18.0338086679  MEMB      23              0.0000000000
      3057        29  POPC      C1             19.5187669105      -15.5321011458       18.5396704260  MEMB      23              0.0000000000
      3058        29  POPC      HA             19.0962937140      -15.5582976771       19.5666371987  MEMB      23              0.0000000000
      3059        29  POPC      HB             20.5461669218      -15.9750462743       18.6069926705  MEMB      23              0.0000000000
      3060        29  POPC      C2             18.6658344937      -16.4526242441       17.6203648565  MEMB      23              0.0000000000
      3061        29  POPC      HS             18.8285440051      -17.5108186057       17.9524544914  MEMB      23              0.0000000000
      3062        29  POPC      O21            19.0481227133      -16.2338441396       16.2358780240  MEMB      23              0.0000000000
      3063        29  POPC      C21            20.2398948547      -16.8057272703       15.9990682511  MEMB      23              0.0000000000
      3064        29  POPC      O22            20.7283940304      -17.6716857295       16.6998273261  MEMB      23              0.0000000000
      3065        29  POPC      C22            20.7117507720      -16.4861042738       14.5776621161  MEMB      23              0.0000000000
      3066        29  POPC      H2R            19.8315494124      -16.4105214472       13.9242760017  MEMB      23              0.0000000000
      3067        29  POPC      H2S            21.2957563879      -17.3776743511       14.2582540993  MEMB      23              0.0000000000
      3068        29  POPC      C3             17.1207363391      -16.2425710389       17.7992496710  MEMB      23              0.0000000000
      3069        29  POPC      HX             16.9187778208      -16.1567317197       18.8880403745  MEMB      23              0.0000000000
      3070        29  POPC      HY             16.6601720585      -17.2047844574       17.4655383566  MEMB      23              0.0000000000
      3071        29  POPC      O31            16.5801461969      -15.0801424549       17.1224805724  MEMB      23              0.0000000000
      3072        29  POPC      C31            15.4557213334      -15.3139218175       16.4457499210  MEMB      23              0.0000000000
      3073        29  POPC      O32            14.8193270346      -16.3486631259       16.4643423647  MEMB      23              0.0000000000
      3074        29  POPC      C32            15.1047831531      -14.0813415072       15.6263098173  MEMB      23              0.0000000000
      3075        29  POPC      H2X            15.4327950236      -13.1884003887       16.1944679846  MEMB      23              0.0000000000
      3076        29  POPC      H2Y            14.0016072369      -14.0586900790       15.5279686104  MEMB      23              0.0000000000
      3077        29  POPC      C23            21.6248483967      -15.2514722078       14.3793420340  MEMB      23              0.0000000000
      3078        29  POPC      H3R            21.9992472062      -15.2817946400       13.3306204048  MEMB      23              0.0000000000
      3079        29  POPC      H3S            22.5135141031      -15.3219994918       15.0438121143  MEMB      23              0.0000000000
      3080        29  POPC      C24            20.9721283632      -13.8793223165       14.5886374327  MEMB      23              0.0000000000
      3081        29  POPC      H4R            21.6922002921      -13.0926023221       14.2711245856  MEMB      23              0.0000000000
      3082        29  POPC      H4S            20.8282531176      -13.7471622173       15.6857755632  MEMB      23              0.0000000000
      3083        29  POPC      C25            19.6110507416      -13.6534948120       13.9094116972  MEMB      23              0.0000000000
      3084        29  POPC      H5R            19.3217295115      -12.5898533698       14.0669515616  MEMB      23              0.0000000000
      3085        29  POPC      H5S            18.8686937830      -14.2796661329       14.4489137233  MEMB      23              0.0000000000
      3086        29  POPC      C26            19.5191738491      -13.9654919283       12.4059742809  MEMB      23              0.0000000000
      3087        29  POPC      H6R            18.5027771875      -13.6583454614       12.0770126854  MEMB      23              0.0000000000
      3088        29  POPC      H6S            19.5999229687      -15.0607140765       12.2348475717  MEMB      23              0.0000000000
      3089        29  POPC      C27            20.5531964299      -13.2513572812       11.5198294423  MEMB      23              0.0000000000
      3090        29  POPC      H7R            21.4804199897      -13.8625479037       11.5030241512  MEMB      23              0.0000000000
      3091        29  POPC      H7S            20.8096817378      -12.2719521137       11.9814828197  MEMB      23              0.0000000000
      3092        29  POPC      C28            20.0646554440      -12.9890910954       10.0756428432  MEMB      23              0.0000000000
      3093        29  POPC      H8R            20.9047555869      -12.5446526380        9.4971804824  MEMB      23              0.0000000000
      3094        29  POPC      H8S            19.2661311545      -12.2157472548       10.1300650489  MEMB      23              0.0000000000
      3095        29  POPC      C29            19.5111186723      -14.2232490463        9.4072363205  MEMB      23              0.0000000000
      3096        29  POPC      H91            18.7662727393      -14.7638293111       10.0083033866  MEMB      23              0.0000000000
      3097        29  POPC      C210           19.7922115837      -14.7036428840        8.1842711975  MEMB      23              0.0000000000
      3098        29  POPC      H101           19.2730981215      -15.6202719227        7.8690294056  MEMB      23              0.0000000000
      3099        29  POPC      C211           20.7376394956      -14.1274654956        7.1576597411  MEMB      23              0.0000000000
      3100        29  POPC      H11R           21.7263374621      -14.6360191991        7.2173721970  MEMB      23              0.0000000000
      3101        29  POPC      H11S           20.9183010492      -13.0443544483        7.3348538307  MEMB      23              0.0000000000
      3102        29  POPC      C212           20.2020975718      -14.2949056489        5.7191785602  MEMB      23              0.0000000000
      3103        29  POPC      H12R           20.8729980533      -13.7466446573        5.0194315604  MEMB      23              0.0000000000
      3104        29  POPC      H12S           19.1932390618      -13.8353536221        5.6335373746  MEMB      23              0.0000000000
      3105        29  POPC      C213           20.1342401585      -15.7598949548        5.2597365058  MEMB      23              0.0000000000
      3106        29  POPC      H13R           19.4757703503      -16.3395632407        5.9431290425  MEMB      23              0.0000000000
      3107        29  POPC      H13S           21.1484103444      -16.2084422953        5.3249442714  MEMB      23              0.0000000000
      3108        29  POPC      C214           19.5873842429      -15.9230341480        3.8367149727  MEMB      23              0.0000000000
      3109        29  POPC      H14R           19.1535378404      -14.9620739419        3.4812056591  MEMB      23              0.0000000000
      3110        29  POPC      H14S           18.7507894193      -16.6522888761        3.8785457551  MEMB      23              0.0000000000
      3111        29  POPC      C215           20.6451582191      -16.4106261726        2.8368104024  MEMB      23              0.0000000000
      3112        29  POPC      H15R           21.1780714954      -17.3027086628        3.2350543845  MEMB      23              0.0000000000
      3113        29  POPC      H15S           21.4019859713      -15.6004527003        2.7208571612  MEMB      23              0.0000000000
      3114        29  POPC      C216           20.0537747957      -16.7440216867        1.4589994137  MEMB      23              0.0000000000
      3115        29  POPC      H16R           20.8173158161      -16.5023404396        0.6847172610  MEMB      23              0.0000000000
      3116        29  POPC      H16S           19.1731110626      -16.0902584772        1.2681076101  MEMB      23              0.0000000000
      3117        29  POPC      C217           19.6567849251      -18.2207898672        1.2740985265  MEMB      23              0.0000000000
      3118        29  POPC      H17R           20.5791384736      -18.8436366469        1.3120147489  MEMB      23              0.0000000000
      3119        29  POPC      H17S           19.2202263666      -18.3324004073        0.2557781880  MEMB      23              0.0000000000
      3120        29  POPC      C218           18.6527750120      -18.7732655195        2.2881793537  MEMB      23              0.0000000000
      3121        29  POPC      H18R           19.1105036503      -18.8446378594        3.2975834616  MEMB      23              0.0000000000
      3122        29  POPC      H18S           18.3135044300      -19.7865224747        1.9900484405  MEMB      23              0.0000000000
      3123        29  POPC      H18T           17.7643038297      -18.1111338534        2.3442527464  MEMB      23              0.0000000000
      3124        29  POPC      C33            15.7528716713      -14.0813264707       14.2224731194  MEMB      23              0.0000000000
      3125        29  POPC      H3X            15.1739751982      -14.7495470700       13.5447305495  MEMB      23              0.0000000000
      3126        29  POPC      H3Y            16.7865033880      -14.4877119140       14.2772107956  MEMB      23              0.0000000000
      3127        29  POPC      C34            15.8456261982      -12.6636902248       13.6351467908  MEMB      23              0.0000000000
      3128        29  POPC      H4X            16.9099008923      -12.3441833002       13.5843239993  MEMB      23              0.0000000000
      3129        29  POPC      H4Y            15.3319864741      -11.9576236207       14.3247673951  MEMB      23              0.0000000000
      3130        29  POPC      C35            15.1896333432      -12.5291592760       12.2564160800  MEMB      23              0.0000000000
      3131        29  POPC      H5X            14.9590774032      -11.4539633678       12.0702577570  MEMB      23              0.0000000000
      3132        29  POPC      H5Y            14.2314218892      -13.0883233401       12.2568051029  MEMB      23              0.0000000000
      3133        29  POPC      C36            16.0537772068      -13.0246458595       11.0960384571  MEMB      23              0.0000000000
      3134        29  POPC      H6X            16.3045415708      -14.0988735420       11.2332764491  MEMB      23              0.0000000000
      3135        29  POPC      H6Y            17.0026338822      -12.4418965667       11.0895983463  MEMB      23              0.0000000000
      3136        29  POPC      C37            15.3515130795      -12.8294786661        9.7484747620  MEMB      23              0.0000000000
      3137        29  POPC      H7X            15.0245168619      -11.7682043041        9.6666033525  MEMB      23              0.0000000000
      3138        29  POPC      H7Y            14.4381822992      -13.4638882933        9.7102067416  MEMB      23              0.0000000000
      3139        29  POPC      C38            16.2550018932      -13.1588911282        8.5577166253  MEMB      23              0.0000000000
      3140        29  POPC      H8X            16.5476248772      -14.2314765183        8.5983692461  MEMB      23              0.0000000000
      3141        29  POPC      H8Y            17.1840585314      -12.5480322909        8.6270699837  MEMB      23              0.0000000000
      3142        29  POPC      C39            15.5666274032      -12.8622886826        7.2241100653  MEMB      23              0.0000000000
      3143        29  POPC      H9X            15.2286508138      -11.8021319314        7.2238327396  MEMB      23              0.0000000000
      3144        29  POPC      H9Y            14.6647018934      -13.5060587868        7.1276230014  MEMB      23              0.0000000000
      3145        29  POPC      C310           16.4832382151      -13.0833608734        6.0180983388  MEMB      23              0.0000000000
      3146        29  POPC      H10X           16.7825185482      -14.1549384404        5.9767062524  MEMB      23              0.0000000000
      3147        29  POPC      H10Y           17.4072464206      -12.4758794010        6.1415172673  MEMB      23              0.0000000000
      3148        29  POPC      C311           15.7949080155      -12.6990083862        4.7061766843  MEMB      23              0.0000000000
      3149        29  POPC      H11X           15.4981747726      -11.6263262839        4.7396341292  MEMB      23              0.0000000000
      3150        29  POPC      H11Y           14.8676870878      -13.3063684130        4.6086488849  MEMB      23              0.0000000000
      3151        29  POPC      C312           16.6724237128      -12.9447895686        3.4771718912  MEMB      23              0.0000000000
      3152        29  POPC      H12X           16.9968903870      -14.0106302688        3.4769416786  MEMB      23              0.0000000000
      3153        29  POPC      H12Y           17.5849857208      -12.3106782934        3.5337208273  MEMB      23              0.0000000000
      3154        29  POPC      C313           15.9228542799      -12.6584441339        2.1729790209  MEMB      23              0.0000000000
      3155        29  POPC      H13X           15.5347438488      -11.6156398577        2.1734536380  MEMB      23              0.0000000000
      3156        29  POPC      H13Y           15.0365025214      -13.3270910794        2.1234002050  MEMB      23              0.0000000000
      3157        29  POPC      C314           16.7928242584      -12.8754074864        0.9293940763  MEMB      23              0.0000000000
      3158        29  POPC      H14X           17.6466159023      -13.5496506075        1.1661709811  MEMB      23              0.0000000000
      3159        29  POPC      H14Y           17.2133047460      -11.8908237572        0.6278573030  MEMB      23              0.0000000000
      3160        29  POPC      C315           16.0065555862      -13.4814032360       -0.2377319927  MEMB      23              0.0000000000
      3161        29  POPC      H15X           15.0066353709      -13.0007848684       -0.2698001911  MEMB      23              0.0000000000
      3162        29  POPC      H15Y           15.8444511051      -14.5653459565       -0.0560171116  MEMB      23              0.0000000000
      3163        29  POPC      C316           16.6960728127      -13.3130797704       -1.5869409335  MEMB      23              0.0000000000
      3164        29  POPC      H16X           16.7488270364      -12.2393166383       -1.8672138221  MEMB      23              0.0000000000
      3165        29  POPC      H16Y           16.1479552597      -13.8610783407       -2.3835326599  MEMB      23              0.0000000000
      3166        29  POPC      H16Z           17.7319881811      -13.7050726521       -1.5350357399  MEMB      23              0.0000000000
      3167        30  POPC      N              -9.1602574021      -18.9246217092       20.1274547899  MEMB      24              0.0000000000
      3168        30  POPC      C12           -10.2558548166      -18.2988710740       19.2573900613  MEMB      24              0.0000000000
      3169        30  POPC      H12A           -9.8094247095      -17.6706051819       18.4994302192  MEMB      24              0.0000000000
      3170        30  POPC      H12B          -10.9018181412      -17.6560089837       19.8582370424  MEMB      24              0.0000000000
      3171        30  POPC      C13            -9.7514165758      -19.9232734581       21.0700036899  MEMB      24              0.0000000000
      3172        30  POPC      H13A           -9.0282775954      -20.2867280329       21.7856313861  MEMB      24              0.0000000000
      3173        30  POPC      H13B          -10.5955528328      -19.4998827494       21.6064181830  MEMB      24              0.0000000000
      3174        30  POPC      H13C          -10.1629667390      -20.7443974124       20.4992335658  MEMB      24              0.0000000000
      3175        30  POPC      C14            -8.1700840118      -19.6075307441       19.2406277860  MEMB      24              0.0000000000
      3176        30  POPC      H14A           -8.6768656316      -20.3158132902       18.5949728053  MEMB      24              0.0000000000
      3177        30  POPC      H14B           -7.6385638791      -18.8908542634       18.6099352265  MEMB      24              0.0000000000
      3178        30  POPC      H14C           -7.4121359857      -20.1098223733       19.8242521004  MEMB      24              0.0000000000
      3179        30  POPC      C15            -8.4308573007      -17.9225724632       20.9573563340  MEMB      24              0.0000000000
      3180        30  POPC      H15A           -7.6608280909      -18.3858015515       21.5656656767  MEMB      24              0.0000000000
      3181        30  POPC      H15B           -9.0835449518      -17.3493141011       21.6246165570  MEMB      24              0.0000000000
      3182        30  POPC      H15C           -7.9332980138      -17.1804583383       20.3492001223  MEMB      24              0.0000000000
      3183        30  POPC      C11           -11.2199552675      -19.2319284754       18.5101256670  MEMB      24              0.0000000000
      3184        30  POPC      H11A          -10.6781411438      -20.0886759042       18.0509286704  MEMB      24              0.0000000000
      3185        30  POPC      H11B          -11.7011112692      -18.6587198348       17.6813770951  MEMB      24              0.0000000000
      3186        30  POPC      P             -12.8407565959      -21.0290080386       19.5993245426  MEMB      24              0.0000000000
      3187        30  POPC      O13           -14.2719858274      -21.0321229329       19.2525404154  MEMB      24              0.0000000000
      3188        30  POPC      O14           -12.5004685547      -21.5253278685       20.9552211819  MEMB      24              0.0000000000
      3189        30  POPC      O12           -12.2177313296      -19.5995584531       19.4356219376  MEMB      24              0.0000000000
      3190        30  POPC      O11           -12.0706189889      -21.9426767390       18.5259211538  MEMB      24              0.0000000000
      3191        30  POPC      C1            -10.9065644379      -22.6987948146       18.9091839198  MEMB      24              0.0000000000
      3192        30  POPC      HA            -11.2311516172      -23.5201630235       19.5904155568  MEMB      24              0.0000000000
      3193        30  POPC      HB            -10.1774866817      -22.0774996696       19.4696879517  MEMB      24              0.0000000000
      3194        30  POPC      C2            -10.0784186847      -23.3891935262       17.7521572494  MEMB      24              0.0000000000
      3195        30  POPC      HS             -9.5593572948      -24.2378480958       18.2623155602  MEMB      24              0.0000000000
      3196        30  POPC      O21            -9.1228339036      -22.5005116720       17.1410371212  MEMB      24              0.0000000000
      3197        30  POPC      C21            -8.0408712213      -23.0979969760       16.6512886248  MEMB      24              0.0000000000
      3198        30  POPC      O22            -7.5270705613      -24.1176635674       17.0882664590  MEMB      24              0.0000000000
      3199        30  POPC      C22            -7.5029076865      -22.2687321051       15.4879751656  MEMB      24              0.0000000000
      3200        30  POPC      H2R            -6.4862359478      -22.6305773731       15.2372246745  MEMB      24              0.0000000000
      3201        30  POPC      H2S            -7.4414402551      -21.2071479810       15.8107601424  MEMB      24              0.0000000000
      3202        30  POPC      C3            -10.9309584736      -24.0040128201       16.6007918099  MEMB      24              0.0000000000
      3203        30  POPC      HX            -11.6478739518      -24.6615225676       17.0924734965  MEMB      24              0.0000000000
      3204        30  POPC      HY            -10.2518591210      -24.6287951098       15.9708260776  MEMB      24              0.0000000000
      3205        30  POPC      O31           -11.7237536802      -23.0767884727       15.8434583548  MEMB      24              0.0000000000
      3206        30  POPC      C31           -11.8901875277      -23.3657788567       14.5516197173  MEMB      24              0.0000000000
      3207        30  POPC      O32           -11.2372151103      -24.1640581804       13.9132026287  MEMB      24              0.0000000000
      3208        30  POPC      C32           -13.1348939982      -22.6323246529       14.0621186791  MEMB      24              0.0000000000
      3209        30  POPC      H2X           -13.1839280970      -21.6574981002       14.5872899045  MEMB      24              0.0000000000
      3210        30  POPC      H2Y           -14.0103416152      -23.2441345731       14.3613145453  MEMB      24              0.0000000000
      3211        30  POPC      C23            -8.4009608202      -22.3768367113       14.2339574328  MEMB      24              0.0000000000
      3212        30  POPC      H3R            -9.3957733310      -21.9222663484       14.4486792057  MEMB      24              0.0000000000
      3213        30  POPC      H3S            -8.5669642144      -23.4454680649       13.9640573787  MEMB      24              0.0000000000
      3214        30  POPC      C24            -7.8005611433      -21.6561865622       13.0215807752  MEMB      24              0.0000000000
      3215        30  POPC      H4R            -6.7634924953      -22.0189058854       12.8446187733  MEMB      24              0.0000000000
      3216        30  POPC      H4S            -7.7544720228      -20.5639492319       13.2400057394  MEMB      24              0.0000000000
      3217        30  POPC      C25            -8.6199347415      -21.8519784973       11.7390621839  MEMB      24              0.0000000000
      3218        30  POPC      H5R            -9.6741579435      -21.5497727686       11.9342444462  MEMB      24              0.0000000000
      3219        30  POPC      H5S            -8.6260138486      -22.9284315082       11.4578610000  MEMB      24              0.0000000000
      3220        30  POPC      C26            -8.0716838088      -21.0095702807       10.5799630589  MEMB      24              0.0000000000
      3221        30  POPC      H6R            -7.0275859732      -21.3162634724       10.3543998695  MEMB      24              0.0000000000
      3222        30  POPC      H6S            -8.0579393285      -19.9474822578       10.9111935933  MEMB      24              0.0000000000
      3223        30  POPC      C27            -8.9277607919      -21.1075908190        9.3120677217  MEMB      24              0.0000000000
      3224        30  POPC      H7R            -9.9555422214      -20.7725682520        9.5682248370  MEMB      24              0.0000000000
      3225        30  POPC      H7S            -8.9943182120      -22.1751204101        9.0028491653  MEMB      24              0.0000000000
      3226        30  POPC      C28            -8.4098074548      -20.2698042926        8.1274198228  MEMB      24              0.0000000000
      3227        30  POPC      H8R            -9.0758032923      -20.4624267649        7.2550077029  MEMB      24              0.0000000000
      3228        30  POPC      H8S            -7.4026127940      -20.6412883787        7.8385601354  MEMB      24              0.0000000000
      3229        30  POPC      C29            -8.3504748475      -18.7885151334        8.4070126170  MEMB      24              0.0000000000
      3230        30  POPC      H91            -7.3566437750      -18.4056803973        8.6819149879  MEMB      24              0.0000000000
      3231        30  POPC      C210           -9.3931928621      -17.9386380064        8.4040072708  MEMB      24              0.0000000000
      3232        30  POPC      H101           -9.2111360378      -16.8735912566        8.6150815850  MEMB      24              0.0000000000
      3233        30  POPC      C211          -10.8279035751      -18.3066494487        8.1236852368  MEMB      24              0.0000000000
      3234        30  POPC      H11R          -11.4710978633      -17.8878017946        8.9291079400  MEMB      24              0.0000000000
      3235        30  POPC      H11S          -10.9699254194      -19.4078535894        8.1579650320  MEMB      24              0.0000000000
      3236        30  POPC      C212          -11.3815496648      -17.8083792951        6.7751214201  MEMB      24              0.0000000000
      3237        30  POPC      H12R          -11.1979231667      -16.7156341871        6.6778389993  MEMB      24              0.0000000000
      3238        30  POPC      H12S          -12.4850743285      -17.9690895590        6.7750821280  MEMB      24              0.0000000000
      3239        30  POPC      C213          -10.8043083766      -18.5305139158        5.5489843512  MEMB      24              0.0000000000
      3240        30  POPC      H13R          -10.9452186657      -19.6264725820        5.6576460561  MEMB      24              0.0000000000
      3241        30  POPC      H13S           -9.7073745791      -18.3440277833        5.5072456231  MEMB      24              0.0000000000
      3242        30  POPC      C214          -11.4531983741      -18.0541226927        4.2382007394  MEMB      24              0.0000000000
      3243        30  POPC      H14R          -11.3060466551      -16.9558138546        4.1776482024  MEMB      24              0.0000000000
      3244        30  POPC      H14S          -12.5474662611      -18.2507397547        4.2549406035  MEMB      24              0.0000000000
      3245        30  POPC      C215          -10.8167201521      -18.6819380883        2.9893802168  MEMB      24              0.0000000000
      3246        30  POPC      H15R          -11.2332999621      -19.6983300054        2.8204220999  MEMB      24              0.0000000000
      3247        30  POPC      H15S           -9.7303609551      -18.7922567962        3.1933892370  MEMB      24              0.0000000000
      3248        30  POPC      C216          -10.9524356053      -17.8256652941        1.7204049484  MEMB      24              0.0000000000
      3249        30  POPC      H16R          -10.4449622131      -16.8495437935        1.8871141330  MEMB      24              0.0000000000
      3250        30  POPC      H16S          -12.0171399180      -17.6020702812        1.5203423021  MEMB      24              0.0000000000
      3251        30  POPC      C217          -10.3585904218      -18.5034784315        0.4773028672  MEMB      24              0.0000000000
      3252        30  POPC      H17R          -10.8154194821      -19.5116832356        0.3548746221  MEMB      24              0.0000000000
      3253        30  POPC      H17S           -9.2705711646      -18.6568959976        0.6482195645  MEMB      24              0.0000000000
      3254        30  POPC      C218          -10.5557401765      -17.7017762537       -0.8123903700  MEMB      24              0.0000000000
      3255        30  POPC      H18R          -10.2221181811      -16.6514930781       -0.6829259441  MEMB      24              0.0000000000
      3256        30  POPC      H18S          -11.6261256943      -17.6812656489       -1.1023515426  MEMB      24              0.0000000000
      3257        30  POPC      H18T           -9.9760749155      -18.1562982918       -1.6432130658  MEMB      24              0.0000000000
      3258        30  POPC      C33           -13.1641107759      -22.4029922321       12.5368759602  MEMB      24              0.0000000000
      3259        30  POPC      H3X           -14.1488437724      -22.7281274453       12.1286165244  MEMB      24              0.0000000000
      3260        30  POPC      H3Y           -12.3895994154      -23.0107440057       12.0160297781  MEMB      24              0.0000000000
      3261        30  POPC      C34           -12.9650842826      -20.9219996075       12.1975502551  MEMB      24              0.0000000000
      3262        30  POPC      H4X           -12.1228012114      -20.5201562512       12.8104271538  MEMB      24              0.0000000000
      3263        30  POPC      H4Y           -13.8895451540      -20.3642213634       12.4594100283  MEMB      24              0.0000000000
      3264        30  POPC      C35           -12.6290698090      -20.6934669317       10.7200886160  MEMB      24              0.0000000000
      3265        30  POPC      H5X           -11.8114122588      -21.4019321962       10.4722368028  MEMB      24              0.0000000000
      3266        30  POPC      H5Y           -12.2350073080      -19.6636142411       10.5721828821  MEMB      24              0.0000000000
      3267        30  POPC      C36           -13.8215194664      -20.9019966509        9.7756004186  MEMB      24              0.0000000000
      3268        30  POPC      H6X           -14.5511576465      -20.0747499803        9.9099804050  MEMB      24              0.0000000000
      3269        30  POPC      H6Y           -14.3428318461      -21.8370489017       10.0564037790  MEMB      24              0.0000000000
      3270        30  POPC      C37           -13.4139944530      -20.9747098654        8.2965695636  MEMB      24              0.0000000000
      3271        30  POPC      H7X           -12.9706252212      -20.0024977940        8.0007110488  MEMB      24              0.0000000000
      3272        30  POPC      H7Y           -14.3078806318      -21.0953860447        7.6566622451  MEMB      24              0.0000000000
      3273        30  POPC      C38           -12.4277604560      -22.1104118960        7.9965752227  MEMB      24              0.0000000000
      3274        30  POPC      H8X           -12.7721553509      -23.0571909689        8.4684224072  MEMB      24              0.0000000000
      3275        30  POPC      H8Y           -11.4491419468      -21.8477676141        8.4495261909  MEMB      24              0.0000000000
      3276        30  POPC      C39           -12.2129675746      -22.3318041792        6.4994231347  MEMB      24              0.0000000000
      3277        30  POPC      H9X           -12.1969038374      -21.3427456857        5.9906239065  MEMB      24              0.0000000000
      3278        30  POPC      H9Y           -13.0612924159      -22.9052293651        6.0848765931  MEMB      24              0.0000000000
      3279        30  POPC      C310          -10.9040107129      -23.0668379348        6.1999086553  MEMB      24              0.0000000000
      3280        30  POPC      H10X          -10.9242068280      -24.0861037658        6.6432985185  MEMB      24              0.0000000000
      3281        30  POPC      H10Y          -10.0879950484      -22.4980873332        6.6979026283  MEMB      24              0.0000000000
      3282        30  POPC      C311          -10.6196984816      -23.1498092443        4.6964028061  MEMB      24              0.0000000000
      3283        30  POPC      H11X          -10.8692837859      -22.1687951891        4.2297698612  MEMB      24              0.0000000000
      3284        30  POPC      H11Y          -11.2822113461      -23.9137250232        4.2326909665  MEMB      24              0.0000000000
      3285        30  POPC      C312           -9.1535051467      -23.4657691771        4.3693247325  MEMB      24              0.0000000000
      3286        30  POPC      H12X           -9.0796989547      -23.5267640627        3.2636649060  MEMB      24              0.0000000000
      3287        30  POPC      H12Y           -8.8714039946      -24.4619902566        4.7742935727  MEMB      24              0.0000000000
      3288        30  POPC      C313           -8.1759775867      -22.3992862565        4.8973706452  MEMB      24              0.0000000000
      3289        30  POPC      H13X           -7.9065890986      -22.6577248421        5.9461808846  MEMB      24              0.0000000000
      3290        30  POPC      H13Y           -8.6986709920      -21.4163556651        4.9336596885  MEMB      24              0.0000000000
      3291        30  POPC      C314           -6.8884414547      -22.2444453840        4.0679325237  MEMB      24              0.0000000000
      3292        30  POPC      H14X           -6.3236590941      -23.2039803595        4.1007602495  MEMB      24              0.0000000000
      3293        30  POPC      H14Y           -6.2558862242      -21.4625644754        4.5465774678  MEMB      24              0.0000000000
      3294        30  POPC      C315           -7.1149758559      -21.8498276903        2.5968734490  MEMB      24              0.0000000000
      3295        30  POPC      H15X           -7.5314787013      -22.7197029206        2.0497022635  MEMB      24              0.0000000000
      3296        30  POPC      H15Y           -6.1351161341      -21.6135072674        2.1231353649  MEMB      24              0.0000000000
      3297        30  POPC      C316           -8.0847410252      -20.6903003424        2.3828799469  MEMB      24              0.0000000000
      3298        30  POPC      H16X           -9.0722733000      -20.9157181344        2.8369632841  MEMB      24              0.0000000000
      3299        30  POPC      H16Y           -8.2602643731      -20.5242936455        1.3003305162  MEMB      24              0.0000000000
      3300        30  POPC      H16Z           -7.6876154557      -19.7541163215        2.8302190196  MEMB      24              0.0000000000
      3301        31  POPS      N              10.3630169724      -17.7098671218       20.9315631260  MEMB      25              0.0000000000
      3302        31  POPS      HN1             9.5029924030      -17.2932327610       20.5323822230  MEMB      25              0.0000000000
      3303        31  POPS      HN2            10.3854259832      -18.7319004703       20.7519837277  MEMB      25              0.0000000000
      3304        31  POPS      HN3            10.4682949851      -17.4967357603       21.9521393219  MEMB      25              0.0000000000
      3305        31  POPS      C12            11.4970942585      -17.0970500875       20.1977757328  MEMB      25              0.0000000000
      3306        31  POPS      H12A           12.3086483573      -16.9445905466       20.8889228809  MEMB      25              0.0000000000
      3307        31  POPS      C13            11.0764925418      -15.7238465508       19.6552728194  MEMB      25              0.0000000000
      3308        31  POPS      O13A            9.8757061231      -15.3315354557       19.7089311713  MEMB      25              0.0000000000
      3309        31  POPS      O13B           12.0043485762      -15.0413292123       19.1615775126  MEMB      25              0.0000000000
      3310        31  POPS      C11            12.0177014139      -18.0412633245       19.0649859883  MEMB      25              0.0000000000
      3311        31  POPS      H11A           13.1291985613      -18.1151487188       19.1226649865  MEMB      25              0.0000000000
      3312        31  POPS      H11B           11.8285492437      -17.5716235864       18.0762583459  MEMB      25              0.0000000000
      3313        31  POPS      P              12.0993047266      -20.6426839872       19.4838478063  MEMB      25              0.0000000000
      3314        31  POPS      O13            11.0683602826      -21.6499030582       19.7823098053  MEMB      25              0.0000000000
      3315        31  POPS      O14            13.0174914106      -20.3033460760       20.6018046836  MEMB      25              0.0000000000
      3316        31  POPS      O12            11.3647807819      -19.3159083286       19.1048376822  MEMB      25              0.0000000000
      3317        31  POPS      O11            12.8588299514      -21.0018182255       18.1430164688  MEMB      25              0.0000000000
      3318        31  POPS      C1             12.2638429292      -20.6482613779       16.8795747085  MEMB      25              0.0000000000
      3319        31  POPS      HA             12.7231341010      -19.7151269417       16.4865856019  MEMB      25              0.0000000000
      3320        31  POPS      HB             11.1721690023      -20.4413287834       16.9719332297  MEMB      25              0.0000000000
      3321        31  POPS      C2             12.3951675883      -21.7614145892       15.7931095498  MEMB      25              0.0000000000
      3322        31  POPS      HS             12.3373559447      -22.7390676081       16.3155983863  MEMB      25              0.0000000000
      3323        31  POPS      O21            13.6623251198      -21.6404531993       15.1175224765  MEMB      25              0.0000000000
      3324        31  POPS      C21            13.7867667483      -22.2129291813       13.9435471090  MEMB      25              0.0000000000
      3325        31  POPS      O22            13.3408767156      -23.3042786798       13.6345049221  MEMB      25              0.0000000000
      3326        31  POPS      C22            14.4963401160      -21.2377783638       12.9928534224  MEMB      25              0.0000000000
      3327        31  POPS      H2R            15.4548940581      -20.9535214340       13.4566818921  MEMB      25              0.0000000000
      3328        31  POPS      H2S            13.8891631379      -20.3097197195       12.9584241026  MEMB      25              0.0000000000
      3329        31  POPS      C3             11.2052094037      -21.6547937395       14.7899766899  MEMB      25              0.0000000000
      3330        31  POPS      HX             10.2731416930      -21.6025140950       15.4011744597  MEMB      25              0.0000000000
      3331        31  POPS      HY             11.1319972935      -22.5655335926       14.1590800415  MEMB      25              0.0000000000
      3332        31  POPS      O31            11.3830136047      -20.4829116206       13.9618055776  MEMB      25              0.0000000000
      3333        31  POPS      C31            10.2777489739      -20.0871379800       13.3601008024  MEMB      25              0.0000000000
      3334        31  POPS      O32             9.2082327421      -20.6723470973       13.4137425316  MEMB      25              0.0000000000
      3335        31  POPS      C32            10.4935959003      -18.7683943531       12.6138705024  MEMB      25              0.0000000000
      3336        31  POPS      H2X            10.8789624950      -18.0249294223       13.3443008617  MEMB      25              0.0000000000
      3337        31  POPS      H2Y             9.4858795341      -18.4446007734       12.2720714161  MEMB      25              0.0000000000
      3338        31  POPS      C23            14.7216815839      -21.7828062864       11.5632858503  MEMB      25              0.0000000000
      3339        31  POPS      H3R            14.7549420141      -22.8957093825       11.5449067606  MEMB      25              0.0000000000
      3340        31  POPS      H3S            15.7094593031      -21.4257415432       11.1901898603  MEMB      25              0.0000000000
      3341        31  POPS      C24            13.6575016890      -21.2643935133       10.5915634160  MEMB      25              0.0000000000
      3342        31  POPS      H4R            13.8591655135      -20.1867544320       10.3928642153  MEMB      25              0.0000000000
      3343        31  POPS      H4S            12.6561898457      -21.3476249663       11.0724517830  MEMB      25              0.0000000000
      3344        31  POPS      C25            13.6212466297      -22.0305363304        9.2692930767  MEMB      25              0.0000000000
      3345        31  POPS      H5R            13.1567391452      -23.0253094387        9.4530483841  MEMB      25              0.0000000000
      3346        31  POPS      H5S            14.6593260879      -22.1972702812        8.9019515446  MEMB      25              0.0000000000
      3347        31  POPS      C26            12.8372323505      -21.2917838875        8.1787712865  MEMB      25              0.0000000000
      3348        31  POPS      H6R            13.4095117132      -20.3837766453        7.8863913040  MEMB      25              0.0000000000
      3349        31  POPS      H6S            11.8530437796      -20.9576589957        8.5768493353  MEMB      25              0.0000000000
      3350        31  POPS      C27            12.5952927285      -22.1777069207        6.9488968825  MEMB      25              0.0000000000
      3351        31  POPS      H7R            11.8511185001      -22.9540622622        7.2396050367  MEMB      25              0.0000000000
      3352        31  POPS      H7S            13.5400605433      -22.6988765111        6.6743376526  MEMB      25              0.0000000000
      3353        31  POPS      C28            12.0545668856      -21.4199969297        5.7270578445  MEMB      25              0.0000000000
      3354        31  POPS      H8R            11.1742756161      -20.8148889662        6.0383939093  MEMB      25              0.0000000000
      3355        31  POPS      H8S            11.6958373913      -22.1716449693        4.9882472043  MEMB      25              0.0000000000
      3356        31  POPS      C29            13.1096012250      -20.5537601872        5.0907803451  MEMB      25              0.0000000000
      3357        31  POPS      H91            14.1181513154      -20.6297442072        5.5241949118  MEMB      25              0.0000000000
      3358        31  POPS      C210           12.9016717645      -19.7142357975        4.0649375459  MEMB      25              0.0000000000
      3359        31  POPS      H101           13.7496881569      -19.1539797232        3.6445031572  MEMB      25              0.0000000000
      3360        31  POPS      C211           11.5824456255      -19.4976765259        3.3798016573  MEMB      25              0.0000000000
      3361        31  POPS      H11R           10.9253323128      -20.3833438271        3.5070776955  MEMB      25              0.0000000000
      3362        31  POPS      H11S           11.7396633054      -19.3668744209        2.2868071609  MEMB      25              0.0000000000
      3363        31  POPS      C212           10.8329059466      -18.2805423477        3.9386718551  MEMB      25              0.0000000000
      3364        31  POPS      H12R           11.3608411736      -17.3482570910        3.6368311175  MEMB      25              0.0000000000
      3365        31  POPS      H12S           10.8297030986      -18.3220031724        5.0529957193  MEMB      25              0.0000000000
      3366        31  POPS      C213            9.3744840654      -18.2107707047        3.4673576261  MEMB      25              0.0000000000
      3367        31  POPS      H13R            8.9101936067      -17.3175545965        3.9423386422  MEMB      25              0.0000000000
      3368        31  POPS      H13S            8.8107976518      -19.0984117822        3.8299477182  MEMB      25              0.0000000000
      3369        31  POPS      C214            9.2155794482      -18.0864260112        1.9447194075  MEMB      25              0.0000000000
      3370        31  POPS      H14R           10.0949779617      -17.5836375691        1.4897882491  MEMB      25              0.0000000000
      3371        31  POPS      H14S            8.3278296281      -17.4526039520        1.7490460080  MEMB      25              0.0000000000
      3372        31  POPS      C215            8.8983648657      -19.4016979198        1.2342446364  MEMB      25              0.0000000000
      3373        31  POPS      H15R            8.0852815642      -19.9196653593        1.7885693655  MEMB      25              0.0000000000
      3374        31  POPS      H15S            9.7843224743      -20.0631526250        1.2550194601  MEMB      25              0.0000000000
      3375        31  POPS      C216            8.4422377256      -19.1820877085       -0.2113292392  MEMB      25              0.0000000000
      3376        31  POPS      H16R            9.3378242567      -18.9991401029       -0.8457577066  MEMB      25              0.0000000000
      3377        31  POPS      H16S            7.8050682182      -18.2729752837       -0.2809737629  MEMB      25              0.0000000000
      3378        31  POPS      C217            7.6401562333      -20.3699590773       -0.7504268867  MEMB      25              0.0000000000
      3379        31  POPS      H17R            6.5561114088      -20.1680526900       -0.5931881310  MEMB      25              0.0000000000
      3380        31  POPS      H17S            7.8938731830      -21.2798852155       -0.1607557860  MEMB      25              0.0000000000
      3381        31  POPS      C218            7.9085639501      -20.6573566841       -2.2233758549  MEMB      25              0.0000000000
      3382        31  POPS      H18R            7.1049238453      -21.2894578488       -2.6540044758  MEMB      25              0.0000000000
      3383        31  POPS      H18S            8.8779968101      -21.1855392875       -2.3486758739  MEMB      25              0.0000000000
      3384        31  POPS      H18T            7.9628036959      -19.7169975791       -2.8028143653  MEMB      25              0.0000000000
      3385        31  POPS      C33            11.3909133279      -18.8195018804       11.3613677692  MEMB      25              0.0000000000
      3386        31  POPS      H3X            11.1300027409      -19.7069971550       10.7396519613  MEMB      25              0.0000000000
      3387        31  POPS      H3Y            12.4550406778      -18.9047009368       11.6734320677  MEMB      25              0.0000000000
      3388        31  POPS      C34            11.1994393404      -17.5653668821       10.4938492646  MEMB      25              0.0000000000
      3389        31  POPS      H4X            11.4215257823      -16.6487466267       11.0842203320  MEMB      25              0.0000000000
      3390        31  POPS      H4Y            10.1294249203      -17.5176613035       10.1869741049  MEMB      25              0.0000000000
      3391        31  POPS      C35            12.0714358528      -17.5817518147        9.2336537582  MEMB      25              0.0000000000
      3392        31  POPS      H5X            11.6230216162      -16.9103844662        8.4661283149  MEMB      25              0.0000000000
      3393        31  POPS      H5Y            12.0705138132      -18.6091989968        8.8098589690  MEMB      25              0.0000000000
      3394        31  POPS      C36            13.5116248693      -17.1269390006        9.5019573848  MEMB      25              0.0000000000
      3395        31  POPS      H6X            13.9119755094      -17.6448836910       10.4014972560  MEMB      25              0.0000000000
      3396        31  POPS      H6Y            13.5088206357      -16.0382820186        9.7315602720  MEMB      25              0.0000000000
      3397        31  POPS      C37            14.4642345358      -17.3964920562        8.3294735046  MEMB      25              0.0000000000
      3398        31  POPS      H7X            14.7187187609      -18.4812570859        8.3054390959  MEMB      25              0.0000000000
      3399        31  POPS      H7Y            15.4012496729      -16.8211101417        8.5031986628  MEMB      25              0.0000000000
      3400        31  POPS      C38            13.9237555227      -16.9895467777        6.9605275942  MEMB      25              0.0000000000
      3401        31  POPS      H8X            13.6433059136      -15.9142385862        6.9941627531  MEMB      25              0.0000000000
      3402        31  POPS      H8Y            13.0103360294      -17.5732141729        6.7064067673  MEMB      25              0.0000000000
      3403        31  POPS      C39            14.9634193407      -17.2114093596        5.8623025943  MEMB      25              0.0000000000
      3404        31  POPS      H9X            15.1395231832      -18.3032673586        5.7335837879  MEMB      25              0.0000000000
      3405        31  POPS      H9Y            15.9299195352      -16.7479818794        6.1633195699  MEMB      25              0.0000000000
      3406        31  POPS      C310           14.5080882447      -16.5923583924        4.5443941913  MEMB      25              0.0000000000
      3407        31  POPS      H10X           14.3888790167      -15.4951319276        4.6885898443  MEMB      25              0.0000000000
      3408        31  POPS      H10Y           13.5123662780      -16.9957914495        4.2639151875  MEMB      25              0.0000000000
      3409        31  POPS      C311           15.5048783759      -16.8445801589        3.4157485520  MEMB      25              0.0000000000
      3410        31  POPS      H11X           15.6435691790      -17.9340683777        3.2533339470  MEMB      25              0.0000000000
      3411        31  POPS      H11Y           16.4871744938      -16.4292662526        3.7400358361  MEMB      25              0.0000000000
      3412        31  POPS      C312           15.0867814290      -16.1456202266        2.1192247782  MEMB      25              0.0000000000
      3413        31  POPS      H12X           16.0003526093      -15.6712680789        1.6952751249  MEMB      25              0.0000000000
      3414        31  POPS      H12Y           14.3628346188      -15.3364828573        2.3608635780  MEMB      25              0.0000000000
      3415        31  POPS      C313           14.4738749268      -17.0571704156        1.0489193391  MEMB      25              0.0000000000
      3416        31  POPS      H13X           14.1286897381      -16.4104971723        0.2084601558  MEMB      25              0.0000000000
      3417        31  POPS      H13Y           13.5834185627      -17.5907412299        1.4496698312  MEMB      25              0.0000000000
      3418        31  POPS      C314           15.4841656732      -18.0633188776        0.4888778824  MEMB      25              0.0000000000
      3419        31  POPS      H14X           15.5963382029      -18.9150767938        1.1956372808  MEMB      25              0.0000000000
      3420        31  POPS      H14Y           16.4792279199      -17.5699954616        0.3944037314  MEMB      25              0.0000000000
      3421        31  POPS      C315           15.0888952215      -18.5891195950       -0.8914623815  MEMB      25              0.0000000000
      3422        31  POPS      H15X           15.1162764728      -17.7458961040       -1.6189754723  MEMB      25              0.0000000000
      3423        31  POPS      H15Y           14.0439152667      -18.9711777232       -0.8509661287  MEMB      25              0.0000000000
      3424        31  POPS      C316           16.0186470955      -19.7015788828       -1.3662173688  MEMB      25              0.0000000000
      3425        31  POPS      H16X           17.0759098073      -19.3619986019       -1.3560345942  MEMB      25              0.0000000000
      3426        31  POPS      H16Y           15.7713677888      -20.0491754593       -2.3892984174  MEMB      25              0.0000000000
      3427        31  POPS      H16Z           15.9192739742      -20.5671656162       -0.6841954315  MEMB      25              0.0000000000
      3428        32  POPC      N             -24.4344357759        2.2692819140       19.7031851000  MEMB      26              0.0000000000
      3429        32  POPC      C12           -23.7678227298        1.5890331501       18.5155508763  MEMB      26              0.0000000000
      3430        32  POPC      H12A          -23.0238328523        2.2778156306       18.1107550645  MEMB      26              0.0000000000
      3431        32  POPC      H12B          -24.5063273516        1.4219596660       17.7490423839  MEMB      26              0.0000000000
      3432        32  POPC      C13           -23.3529459202        2.5878313901       20.6841709862  MEMB      26              0.0000000000
      3433        32  POPC      H13A          -23.7458432370        2.9440832686       21.6286586189  MEMB      26              0.0000000000
      3434        32  POPC      H13B          -22.7906082833        1.6704278511       20.8823237189  MEMB      26              0.0000000000
      3435        32  POPC      H13C          -22.6505663731        3.3078815517       20.2706046097  MEMB      26              0.0000000000
      3436        32  POPC      C14           -25.1135803205        3.5633921366       19.3655352631  MEMB      26              0.0000000000
      3437        32  POPC      H14A          -25.9802021253        3.4222324954       18.7379018255  MEMB      26              0.0000000000
      3438        32  POPC      H14B          -25.4356502923        4.0416990355       20.2853275976  MEMB      26              0.0000000000
      3439        32  POPC      H14C          -24.4277290681        4.2339541270       18.8543392839  MEMB      26              0.0000000000
      3440        32  POPC      C15           -25.4180870069        1.3517486118       20.3573344288  MEMB      26              0.0000000000
      3441        32  POPC      H15A          -24.9101594023        0.4289558175       20.6244502165  MEMB      26              0.0000000000
      3442        32  POPC      H15B          -26.2774688920        1.1163507823       19.7362177889  MEMB      26              0.0000000000
      3443        32  POPC      H15C          -25.7698498310        1.8043919966       21.2832425117  MEMB      26              0.0000000000
      3444        32  POPC      C11           -23.0178316204        0.2353259466       18.7501341315  MEMB      26              0.0000000000
      3445        32  POPC      H11A          -22.8505390911       -0.2463282569       17.7555094869  MEMB      26              0.0000000000
      3446        32  POPC      H11B          -23.6763547264       -0.4613803119       19.3112270019  MEMB      26              0.0000000000
      3447        32  POPC      P             -20.5262929913        0.9748314469       18.7063625965  MEMB      26              0.0000000000
      3448        32  POPC      O13           -20.4793345623        0.4406741155       17.3285996176  MEMB      26              0.0000000000
      3449        32  POPC      O14           -19.3035107600        0.8537478354       19.5483448819  MEMB      26              0.0000000000
      3450        32  POPC      O12           -21.7807698598        0.3686766768       19.4655922798  MEMB      26              0.0000000000
      3451        32  POPC      O11           -20.9068649331        2.5173549707       18.6501370302  MEMB      26              0.0000000000
      3452        32  POPC      C1            -19.9313472595        3.4369650581       18.1326946063  MEMB      26              0.0000000000
      3453        32  POPC      HA            -19.0412249732        2.9381080814       17.6713925575  MEMB      26              0.0000000000
      3454        32  POPC      HB            -19.5581164952        4.0711863705       18.9651557484  MEMB      26              0.0000000000
      3455        32  POPC      C2            -20.5082123281        4.3792511167       17.0385874806  MEMB      26              0.0000000000
      3456        32  POPC      HS            -21.2394294633        5.0541199967       17.5418809264  MEMB      26              0.0000000000
      3457        32  POPC      O21           -21.1132223659        3.6100399477       15.9775344142  MEMB      26              0.0000000000
      3458        32  POPC      C21           -22.4202876657        3.4301386523       16.0624922748  MEMB      26              0.0000000000
      3459        32  POPC      O22           -23.1717978680        3.9651475375       16.8666255414  MEMB      26              0.0000000000
      3460        32  POPC      C22           -22.9068545381        2.4133075256       15.0210970596  MEMB      26              0.0000000000
      3461        32  POPC      H2R           -23.7951489812        1.9167399250       15.4641164069  MEMB      26              0.0000000000
      3462        32  POPC      H2S           -22.1180656714        1.6476727727       14.8691434234  MEMB      26              0.0000000000
      3463        32  POPC      C3            -19.3695972654        5.2870555376       16.4772419203  MEMB      26              0.0000000000
      3464        32  POPC      HX            -18.8346825872        5.7149401456       17.3547080175  MEMB      26              0.0000000000
      3465        32  POPC      HY            -19.8102760857        6.1657956998       15.9493549265  MEMB      26              0.0000000000
      3466        32  POPC      O31           -18.4195896516        4.5311199340       15.6803716318  MEMB      26              0.0000000000
      3467        32  POPC      C31           -18.6428649729        4.6383236393       14.3558555077  MEMB      26              0.0000000000
      3468        32  POPC      O32           -19.4624396018        5.3697085774       13.8393035556  MEMB      26              0.0000000000
      3469        32  POPC      C32           -17.6615711654        3.7439094336       13.5815901791  MEMB      26              0.0000000000
      3470        32  POPC      H2X           -16.8729707402        3.3640168061       14.2563126565  MEMB      26              0.0000000000
      3471        32  POPC      H2Y           -17.1962964617        4.4247340112       12.8367067965  MEMB      26              0.0000000000
      3472        32  POPC      C23           -23.3180799327        3.0736477074       13.6853095860  MEMB      26              0.0000000000
      3473        32  POPC      H3R           -23.8243239416        4.0456575601       13.8772006120  MEMB      26              0.0000000000
      3474        32  POPC      H3S           -24.0454379612        2.4209556681       13.1487262888  MEMB      26              0.0000000000
      3475        32  POPC      C24           -22.1073514496        3.2711783008       12.7668257290  MEMB      26              0.0000000000
      3476        32  POPC      H4R           -21.9156057762        2.3381846083       12.1963255412  MEMB      26              0.0000000000
      3477        32  POPC      H4S           -21.2076426889        3.4615122902       13.3965213867  MEMB      26              0.0000000000
      3478        32  POPC      C25           -22.2480968493        4.4760994130       11.8345033328  MEMB      26              0.0000000000
      3479        32  POPC      H5R           -22.2961959699        5.3695220599       12.4962658214  MEMB      26              0.0000000000
      3480        32  POPC      H5S           -23.1810546156        4.4171177775       11.2347035091  MEMB      26              0.0000000000
      3481        32  POPC      C26           -21.0343334279        4.6926246078       10.9287628376  MEMB      26              0.0000000000
      3482        32  POPC      H6R           -20.1185270207        4.6155820024       11.5508952149  MEMB      26              0.0000000000
      3483        32  POPC      H6S           -21.0387498822        5.7404699707       10.5602923411  MEMB      26              0.0000000000
      3484        32  POPC      C27           -20.9382436712        3.6954686427        9.7653190725  MEMB      26              0.0000000000
      3485        32  POPC      H7R           -21.1886701130        2.6763255623       10.1305069171  MEMB      26              0.0000000000
      3486        32  POPC      H7S           -19.8753004005        3.6620137541        9.4355219777  MEMB      26              0.0000000000
      3487        32  POPC      C28           -21.8373817404        4.0453450733        8.5620625335  MEMB      26              0.0000000000
      3488        32  POPC      H8R           -22.9024307483        4.0220594166        8.8810023500  MEMB      26              0.0000000000
      3489        32  POPC      H8S           -21.7152119416        3.2550248705        7.7868610421  MEMB      26              0.0000000000
      3490        32  POPC      C29           -21.4813920204        5.4018297512        8.0135714390  MEMB      26              0.0000000000
      3491        32  POPC      H91           -22.1340597817        6.2272622656        8.3334787312  MEMB      26              0.0000000000
      3492        32  POPC      C210          -20.4603868810        5.6557994059        7.1813480914  MEMB      26              0.0000000000
      3493        32  POPC      H101          -20.2706747791        6.6923711902        6.8651027248  MEMB      26              0.0000000000
      3494        32  POPC      C211          -19.5015499962        4.6252047384        6.6522714430  MEMB      26              0.0000000000
      3495        32  POPC      H11R          -19.9728100548        4.1480427881        5.7697045376  MEMB      26              0.0000000000
      3496        32  POPC      H11S          -19.3229591573        3.8029135049        7.3796661131  MEMB      26              0.0000000000
      3497        32  POPC      C212          -18.1328109904        5.2024321335        6.2438069778  MEMB      26              0.0000000000
      3498        32  POPC      H12R          -17.5972080510        5.5111040071        7.1717757579  MEMB      26              0.0000000000
      3499        32  POPC      H12S          -18.2459682159        6.1088094778        5.6082231023  MEMB      26              0.0000000000
      3500        32  POPC      C213          -17.2827192255        4.1632666622        5.4935070772  MEMB      26              0.0000000000
      3501        32  POPC      H13R          -17.5459758280        3.1511382437        5.8732796325  MEMB      26              0.0000000000
      3502        32  POPC      H13S          -16.2082278766        4.3343044451        5.7310579284  MEMB      26              0.0000000000
      3503        32  POPC      C214          -17.4256484718        4.1848466789        3.9585154089  MEMB      26              0.0000000000
      3504        32  POPC      H14R          -16.9707860726        3.2533753802        3.5554066204  MEMB      26              0.0000000000
      3505        32  POPC      H14S          -16.8437230462        5.0481466364        3.5594514203  MEMB      26              0.0000000000
      3506        32  POPC      C215          -18.8573084620        4.2822783174        3.4187857344  MEMB      26              0.0000000000
      3507        32  POPC      H15R          -19.3029310004        5.2442423243        3.7575799947  MEMB      26              0.0000000000
      3508        32  POPC      H15S          -19.4757821137        3.4509129854        3.8244645735  MEMB      26              0.0000000000
      3509        32  POPC      C216          -18.9125020372        4.2334463872        1.8879174662  MEMB      26              0.0000000000
      3510        32  POPC      H16R          -18.9102590060        3.1676575914        1.5674657139  MEMB      26              0.0000000000
      3511        32  POPC      H16S          -17.9938323070        4.7121130517        1.4761928944  MEMB      26              0.0000000000
      3512        32  POPC      C217          -20.1332410314        4.9581900131        1.3036559143  MEMB      26              0.0000000000
      3513        32  POPC      H17R          -20.0653886529        4.9236733855        0.1920561434  MEMB      26              0.0000000000
      3514        32  POPC      H17S          -20.0866701583        6.0287075795        1.6115499524  MEMB      26              0.0000000000
      3515        32  POPC      C218          -21.4863948210        4.3837173607        1.7231962270  MEMB      26              0.0000000000
      3516        32  POPC      H18R          -22.3112875736        4.9619401598        1.2531388593  MEMB      26              0.0000000000
      3517        32  POPC      H18S          -21.6120530610        4.4240510212        2.8266866851  MEMB      26              0.0000000000
      3518        32  POPC      H18T          -21.5715847885        3.3283610573        1.3910305959  MEMB      26              0.0000000000
      3519        32  POPC      C33           -18.3297601367        2.5855867124       12.8030405579  MEMB      26              0.0000000000
      3520        32  POPC      H3X           -17.6696014957        2.3087434934       11.9483216372  MEMB      26              0.0000000000
      3521        32  POPC      H3Y           -19.2946872326        2.9082654365       12.3665498224  MEMB      26              0.0000000000
      3522        32  POPC      C34           -18.5567008746        1.3115327892       13.6291703176  MEMB      26              0.0000000000
      3523        32  POPC      H4X           -18.9714629450        1.5750087915       14.6300703586  MEMB      26              0.0000000000
      3524        32  POPC      H4Y           -17.5711187064        0.8163906624       13.7775847810  MEMB      26              0.0000000000
      3525        32  POPC      C35           -19.5211507924        0.3043638628       12.9689264084  MEMB      26              0.0000000000
      3526        32  POPC      H5X           -20.5556288900        0.6971321448       13.0847113575  MEMB      26              0.0000000000
      3527        32  POPC      H5Y           -19.4603838270       -0.6661071857       13.5128566253  MEMB      26              0.0000000000
      3528        32  POPC      C36           -19.2510180583        0.0460382931       11.4736156586  MEMB      26              0.0000000000
      3529        32  POPC      H6X           -18.1939352313       -0.2828265553       11.3493420573  MEMB      26              0.0000000000
      3530        32  POPC      H6Y           -19.3844179851        0.9991055133       10.9132278199  MEMB      26              0.0000000000
      3531        32  POPC      C37           -20.1718076276       -1.0110071780       10.8317587548  MEMB      26              0.0000000000
      3532        32  POPC      H7X           -19.9142492040       -2.0217689814       11.2193331575  MEMB      26              0.0000000000
      3533        32  POPC      H7Y           -19.9719105584       -1.0115265348        9.7374377187  MEMB      26              0.0000000000
      3534        32  POPC      C38           -21.6674842190       -0.7551427944       11.0827758934  MEMB      26              0.0000000000
      3535        32  POPC      H8X           -21.8815848733        0.3267323290       10.9465873365  MEMB      26              0.0000000000
      3536        32  POPC      H8Y           -21.8807657669       -1.0001450036       12.1489683147  MEMB      26              0.0000000000
      3537        32  POPC      C39           -22.6165170421       -1.5754779636       10.1925282397  MEMB      26              0.0000000000
      3538        32  POPC      H9X           -23.6510675977       -1.4549664179       10.5895388824  MEMB      26              0.0000000000
      3539        32  POPC      H9Y           -22.3591801249       -2.6547197522       10.2777818713  MEMB      26              0.0000000000
      3540        32  POPC      C310          -22.6295270024       -1.1662218327        8.7082530522  MEMB      26              0.0000000000
      3541        32  POPC      H10X          -23.3773527562       -1.8015054256        8.1796987267  MEMB      26              0.0000000000
      3542        32  POPC      H10Y          -21.6367557635       -1.3753901310        8.2540852969  MEMB      26              0.0000000000
      3543        32  POPC      C311          -22.9942918815        0.3099643359        8.4895758416  MEMB      26              0.0000000000
      3544        32  POPC      H11X          -22.1835481883        0.9587269375        8.8880247273  MEMB      26              0.0000000000
      3545        32  POPC      H11Y          -23.9178108761        0.5354247192        9.0699777756  MEMB      26              0.0000000000
      3546        32  POPC      C312          -23.2421335710        0.6823893560        7.0206752042  MEMB      26              0.0000000000
      3547        32  POPC      H12X          -23.6139222256        1.7326256953        6.9896709872  MEMB      26              0.0000000000
      3548        32  POPC      H12Y          -24.0458308283        0.0319806223        6.6117332011  MEMB      26              0.0000000000
      3549        32  POPC      C313          -21.9883611141        0.5868091909        6.1363266843  MEMB      26              0.0000000000
      3550        32  POPC      H13X          -21.7189248938       -0.4805501798        5.9779811698  MEMB      26              0.0000000000
      3551        32  POPC      H13Y          -21.1403782351        1.0717705494        6.6727906488  MEMB      26              0.0000000000
      3552        32  POPC      C314          -22.1593216817        1.2909594337        4.7800675257  MEMB      26              0.0000000000
      3553        32  POPC      H14X          -21.1880480011        1.2784033424        4.2345557648  MEMB      26              0.0000000000
      3554        32  POPC      H14Y          -22.4222614924        2.3580374854        4.9628849873  MEMB      26              0.0000000000
      3555        32  POPC      C315          -23.2392788995        0.6570444087        3.8943180338  MEMB      26              0.0000000000
      3556        32  POPC      H15X          -24.1811899980        0.5450022807        4.4759701303  MEMB      26              0.0000000000
      3557        32  POPC      H15Y          -22.9077982363       -0.3658669393        3.6054565104  MEMB      26              0.0000000000
      3558        32  POPC      C316          -23.5493186142        1.4717927427        2.6379727741  MEMB      26              0.0000000000
      3559        32  POPC      H16X          -24.3784918458        0.9982016998        2.0695318256  MEMB      26              0.0000000000
      3560        32  POPC      H16Y          -22.6613098075        1.5275452047        1.9750872748  MEMB      26              0.0000000000
      3561        32  POPC      H16Z          -23.8538239081        2.5052270973        2.9094085465  MEMB      26              0.0000000000
      3562        33  POPC      N              22.0910544566       -6.9708195606       17.7265876329  MEMB      27              0.0000000000
      3563        33  POPC      C12            23.4713280812       -6.3684860992       17.4824405761  MEMB      27              0.0000000000
      3564        33  POPC      H12A           23.4608844137       -5.8153536635       16.5514852754  MEMB      27              0.0000000000
      3565        33  POPC      H12B           24.1999220809       -7.1638797489       17.3136819632  MEMB      27              0.0000000000
      3566        33  POPC      C13            22.2186213936       -8.2990064311       18.4329017184  MEMB      27              0.0000000000
      3567        33  POPC      H13A           22.7687289188       -9.0445665596       17.8714272618  MEMB      27              0.0000000000
      3568        33  POPC      H13B           22.7653460718       -8.1794134306       19.3751312703  MEMB      27              0.0000000000
      3569        33  POPC      H13C           21.2610174016       -8.7131472607       18.7130549755  MEMB      27              0.0000000000
      3570        33  POPC      C14            21.3153463456       -6.0778143210       18.6438685545  MEMB      27              0.0000000000
      3571        33  POPC      H14A           20.3590951552       -6.5019122923       18.9068874858  MEMB      27              0.0000000000
      3572        33  POPC      H14B           21.8931922709       -5.9725570774       19.5651381978  MEMB      27              0.0000000000
      3573        33  POPC      H14C           21.1938607178       -5.0942592572       18.2235963861  MEMB      27              0.0000000000
      3574        33  POPC      C15            21.3123030852       -7.1708589233       16.4638241661  MEMB      27              0.0000000000
      3575        33  POPC      H15A           21.8130273280       -7.8971951861       15.8309576914  MEMB      27              0.0000000000
      3576        33  POPC      H15B           21.1649147543       -6.2410513171       15.9238415610  MEMB      27              0.0000000000
      3577        33  POPC      H15C           20.3265226771       -7.5582294886       16.7052260108  MEMB      27              0.0000000000
      3578        33  POPC      C11            24.0640972794       -5.4400866685       18.5899989864  MEMB      27              0.0000000000
      3579        33  POPC      H11A           23.4928564367       -4.4857780860       18.5966836628  MEMB      27              0.0000000000
      3580        33  POPC      H11B           25.1114250621       -5.1678213119       18.3339220197  MEMB      27              0.0000000000
      3581        33  POPC      P              24.9181236937       -7.1958375570       20.4002573948  MEMB      27              0.0000000000
      3582        33  POPC      O13            24.0119945420       -8.2064321722       20.9955733299  MEMB      27              0.0000000000
      3583        33  POPC      O14            26.0086408503       -6.6668746217       21.2532335883  MEMB      27              0.0000000000
      3584        33  POPC      O12            24.0045652647       -5.9962237458       19.8953383810  MEMB      27              0.0000000000
      3585        33  POPC      O11            25.4968014200       -7.7670525806       19.0527536756  MEMB      27              0.0000000000
      3586        33  POPC      C1             26.8192191425       -7.3825823503       18.6557209998  MEMB      27              0.0000000000
      3587        33  POPC      HA             27.5507429682       -8.0713894948       19.1380707946  MEMB      27              0.0000000000
      3588        33  POPC      HB             27.0930896761       -6.3388438187       18.9484125351  MEMB      27              0.0000000000
      3589        33  POPC      C2             26.9604670644       -7.5254253584       17.1243916056  MEMB      27              0.0000000000
      3590        33  POPC      HS             28.0343814155       -7.5712631033       16.8412224129  MEMB      27              0.0000000000
      3591        33  POPC      O21            26.3115665948       -6.4320022689       16.4319845351  MEMB      27              0.0000000000
      3592        33  POPC      C21            27.0814653383       -5.3484729224       16.3668619337  MEMB      27              0.0000000000
      3593        33  POPC      O22            28.2111508325       -5.2491477691       16.7954579274  MEMB      27              0.0000000000
      3594        33  POPC      C22            26.3126903837       -4.2133656271       15.6860102478  MEMB      27              0.0000000000
      3595        33  POPC      H2R            26.1408295280       -3.4326516814       16.4576837254  MEMB      27              0.0000000000
      3596        33  POPC      H2S            25.3360757711       -4.5854151510       15.3236051716  MEMB      27              0.0000000000
      3597        33  POPC      C3             26.3696015316       -8.8825323911       16.6879248701  MEMB      27              0.0000000000
      3598        33  POPC      HX             25.3273632265       -9.0092515766       17.0564587405  MEMB      27              0.0000000000
      3599        33  POPC      HY             26.9664194148       -9.6772794907       17.1900987868  MEMB      27              0.0000000000
      3600        33  POPC      O31            26.4896629483       -9.0375219477       15.2675913133  MEMB      27              0.0000000000
      3601        33  POPC      C31            25.4509955027       -8.6216480350       14.5652922052  MEMB      27              0.0000000000
      3602        33  POPC      O32            24.4341039689       -8.1150100011       15.0125156300  MEMB      27              0.0000000000
      3603        33  POPC      C32            25.6246730667       -9.1200056393       13.1248677104  MEMB      27              0.0000000000
      3604        33  POPC      H2X            24.7639970624       -9.7896119969       12.9148894987  MEMB      27              0.0000000000
      3605        33  POPC      H2Y            26.5592127342       -9.7216190368       13.0848821716  MEMB      27              0.0000000000
      3606        33  POPC      C23            27.1160417589       -3.5935389250       14.5207010105  MEMB      27              0.0000000000
      3607        33  POPC      H3R            28.1052295967       -3.2516055569       14.9045503378  MEMB      27              0.0000000000
      3608        33  POPC      H3S            26.5928837272       -2.6836289360       14.1489833364  MEMB      27              0.0000000000
      3609        33  POPC      C24            27.3314864438       -4.5496788249       13.3351875768  MEMB      27              0.0000000000
      3610        33  POPC      H4R            27.2923612132       -5.6087718920       13.6683382054  MEMB      27              0.0000000000
      3611        33  POPC      H4S            28.3607096090       -4.3722426448       12.9425189058  MEMB      27              0.0000000000
      3612        33  POPC      C25            26.3673682043       -4.3474691579       12.1515372764  MEMB      27              0.0000000000
      3613        33  POPC      H5R            26.6801978770       -5.0432484110       11.3383225884  MEMB      27              0.0000000000
      3614        33  POPC      H5S            26.4777238287       -3.3122014400       11.7590703118  MEMB      27              0.0000000000
      3615        33  POPC      C26            24.8868599582       -4.6139578220       12.4665484238  MEMB      27              0.0000000000
      3616        33  POPC      H6R            24.5040009318       -3.8333342934       13.1593505776  MEMB      27              0.0000000000
      3617        33  POPC      H6S            24.7981540210       -5.5943758535       12.9824356945  MEMB      27              0.0000000000
      3618        33  POPC      C27            24.0222666494       -4.6243945756       11.1923312787  MEMB      27              0.0000000000
      3619        33  POPC      H7R            24.4559107991       -5.3397295865       10.4575999459  MEMB      27              0.0000000000
      3620        33  POPC      H7S            24.0787253949       -3.6103592414       10.7343991540  MEMB      27              0.0000000000
      3621        33  POPC      C28            22.5362529330       -4.9741629328       11.4208273689  MEMB      27              0.0000000000
      3622        33  POPC      H8R            21.9947697116       -4.7392118323       10.4770890247  MEMB      27              0.0000000000
      3623        33  POPC      H8S            22.1215202404       -4.2842043484       12.1893429708  MEMB      27              0.0000000000
      3624        33  POPC      C29            22.3246426841       -6.4158782815       11.8254306256  MEMB      27              0.0000000000
      3625        33  POPC      H91            22.5790390208       -6.6368844824       12.8742145747  MEMB      27              0.0000000000
      3626        33  POPC      C210           21.8983077172       -7.4303680578       11.0431370307  MEMB      27              0.0000000000
      3627        33  POPC      H101           21.8008488205       -8.4342769631       11.4825176673  MEMB      27              0.0000000000
      3628        33  POPC      C211           21.5306343205       -7.3661233684        9.5801989083  MEMB      27              0.0000000000
      3629        33  POPC      H11R           21.5648066621       -6.3251366029        9.1970418780  MEMB      27              0.0000000000
      3630        33  POPC      H11S           20.4797669253       -7.7067797870        9.4444502425  MEMB      27              0.0000000000
      3631        33  POPC      C212           22.4304086140       -8.2420356266        8.6806066583  MEMB      27              0.0000000000
      3632        33  POPC      H12R           22.3079208985       -9.3086204298        8.9753918300  MEMB      27              0.0000000000
      3633        33  POPC      H12S           23.5001824342       -7.9714225811        8.8237904025  MEMB      27              0.0000000000
      3634        33  POPC      C213           22.0722916086       -8.0929119441        7.1909524868  MEMB      27              0.0000000000
      3635        33  POPC      H13R           20.9660411294       -8.1443279398        7.0993714984  MEMB      27              0.0000000000
      3636        33  POPC      H13S           22.5008223637       -8.9379676372        6.6072361150  MEMB      27              0.0000000000
      3637        33  POPC      C214           22.5777097255       -6.7709091269        6.5889578997  MEMB      27              0.0000000000
      3638        33  POPC      H14R           23.6057314770       -6.9187868456        6.2061469560  MEMB      27              0.0000000000
      3639        33  POPC      H14S           22.6370582417       -6.0015125152        7.3898725827  MEMB      27              0.0000000000
      3640        33  POPC      C215           21.7115629979       -6.2074681014        5.4555269524  MEMB      27              0.0000000000
      3641        33  POPC      H15R           22.1283490250       -5.2175719727        5.1586670915  MEMB      27              0.0000000000
      3642        33  POPC      H15S           20.6785119289       -6.0330017975        5.8308144998  MEMB      27              0.0000000000
      3643        33  POPC      C216           21.6630716911       -7.1014454700        4.2094626926  MEMB      27              0.0000000000
      3644        33  POPC      H16R           21.1141315791       -8.0378876940        4.4512779653  MEMB      27              0.0000000000
      3645        33  POPC      H16S           22.6993752010       -7.3819130339        3.9120550744  MEMB      27              0.0000000000
      3646        33  POPC      C217           20.9825498612       -6.3928202311        3.0318503213  MEMB      27              0.0000000000
      3647        33  POPC      H17R           21.6014068615       -5.5147899929        2.7334867868  MEMB      27              0.0000000000
      3648        33  POPC      H17S           20.0026321050       -5.9943589585        3.3806043035  MEMB      27              0.0000000000
      3649        33  POPC      C218           20.7554336762       -7.2958117805        1.8186986157  MEMB      27              0.0000000000
      3650        33  POPC      H18R           20.1795776938       -8.2008263130        2.1079798658  MEMB      27              0.0000000000
      3651        33  POPC      H18S           21.7258979114       -7.6176405306        1.3814009620  MEMB      27              0.0000000000
      3652        33  POPC      H18T           20.1744823539       -6.7531216662        1.0417845104  MEMB      27              0.0000000000
      3653        33  POPC      C33            25.6803323160       -8.0826593611       11.9868500101  MEMB      27              0.0000000000
      3654        33  POPC      H3X            26.4270668392       -7.2970718607       12.2101521798  MEMB      27              0.0000000000
      3655        33  POPC      H3Y            24.7015809436       -7.5807185338       11.8576340342  MEMB      27              0.0000000000
      3656        33  POPC      C34            26.0416949365       -8.7977719003       10.6743804669  MEMB      27              0.0000000000
      3657        33  POPC      H4X            25.1891206856       -9.4518567368       10.3814482491  MEMB      27              0.0000000000
      3658        33  POPC      H4Y            26.9247801888       -9.4522609290       10.8581307692  MEMB      27              0.0000000000
      3659        33  POPC      C35            26.3859100330       -7.8800582894        9.4973987756  MEMB      27              0.0000000000
      3660        33  POPC      H5X            27.2953022024       -7.2899560421        9.7521212721  MEMB      27              0.0000000000
      3661        33  POPC      H5Y            25.5567910119       -7.1643062311        9.3094002249  MEMB      27              0.0000000000
      3662        33  POPC      C36            26.6634485905       -8.7048127803        8.2306512897  MEMB      27              0.0000000000
      3663        33  POPC      H6X            25.7341135590       -9.2181342807        7.8991361609  MEMB      27              0.0000000000
      3664        33  POPC      H6Y            27.4043050796       -9.4954049408        8.4926410781  MEMB      27              0.0000000000
      3665        33  POPC      C37            27.2418156017       -7.8758091921        7.0797982223  MEMB      27              0.0000000000
      3666        33  POPC      H7X            27.7004688484       -8.5649351419        6.3339757959  MEMB      27              0.0000000000
      3667        33  POPC      H7Y            28.0450757376       -7.2165672348        7.4740954819  MEMB      27              0.0000000000
      3668        33  POPC      C38            26.2036047866       -7.0231326485        6.3546021611  MEMB      27              0.0000000000
      3669        33  POPC      H8X            25.5946336612       -6.4606853441        7.0971956350  MEMB      27              0.0000000000
      3670        33  POPC      H8Y            25.5282102363       -7.7048074666        5.7886590216  MEMB      27              0.0000000000
      3671        33  POPC      C39            26.8390976039       -6.0274440604        5.3800449649  MEMB      27              0.0000000000
      3672        33  POPC      H9X            27.5272068117       -6.5785059984        4.6998531390  MEMB      27              0.0000000000
      3673        33  POPC      H9Y            27.4525853815       -5.2944948560        5.9427184985  MEMB      27              0.0000000000
      3674        33  POPC      C310           25.7994916367       -5.2902837271        4.5247694841  MEMB      27              0.0000000000
      3675        33  POPC      H10X           25.0451095361       -4.7870134094        5.1667694657  MEMB      27              0.0000000000
      3676        33  POPC      H10Y           25.2639902467       -6.0673351795        3.9387144238  MEMB      27              0.0000000000
      3677        33  POPC      C311           26.4584022674       -4.2592171752        3.5924433231  MEMB      27              0.0000000000
      3678        33  POPC      H11X           27.4864142567       -4.6121557410        3.3580272485  MEMB      27              0.0000000000
      3679        33  POPC      H11Y           26.5712827840       -3.2966505662        4.1389429880  MEMB      27              0.0000000000
      3680        33  POPC      C312           25.7280109152       -4.0115049531        2.2594305627  MEMB      27              0.0000000000
      3681        33  POPC      H12X           26.3434877772       -3.3056671609        1.6560933620  MEMB      27              0.0000000000
      3682        33  POPC      H12Y           24.7541791525       -3.5142947380        2.4688095477  MEMB      27              0.0000000000
      3683        33  POPC      C313           25.4588294615       -5.2729805966        1.4145437978  MEMB      27              0.0000000000
      3684        33  POPC      H13X           25.0287508255       -4.9732096224        0.4330422399  MEMB      27              0.0000000000
      3685        33  POPC      H13Y           24.6794508299       -5.8792650009        1.9277451722  MEMB      27              0.0000000000
      3686        33  POPC      C314           26.6916657156       -6.1619819853        1.1745554225  MEMB      27              0.0000000000
      3687        33  POPC      H14X           27.2366575588       -6.3258693884        2.1300952080  MEMB      27              0.0000000000
      3688        33  POPC      H14Y           27.3919277199       -5.6545094458        0.4749956167  MEMB      27              0.0000000000
      3689        33  POPC      C315           26.3155620117       -7.5497519454        0.6377434329  MEMB      27              0.0000000000
      3690        33  POPC      H15X           25.8173354094       -7.4368009138       -0.3503890524  MEMB      27              0.0000000000
      3691        33  POPC      H15Y           25.5720764645       -8.0007122273        1.3350085399  MEMB      27              0.0000000000
      3692        33  POPC      C316           27.5131371245       -8.4941775355        0.5149028138  MEMB      27              0.0000000000
      3693        33  POPC      H16X           27.1890430616       -9.5144808674        0.2179878694  MEMB      27              0.0000000000
      3694        33  POPC      H16Y           28.0432946636       -8.5665248553        1.4893560919  MEMB      27              0.0000000000
      3695        33  POPC      H16Z           28.2302018107       -8.1135103676       -0.2447527841  MEMB      27              0.0000000000
      3696        34  POPC      N              10.1839379605       24.7876087797       18.3702240594  MEMB      28              0.0000000000
      3697        34  POPC      C12             9.0409240910       24.5930506297       19.3704108519  MEMB      28              0.0000000000
      3698        34  POPC      H12A            8.0909867443       24.7604917392       18.8780601512  MEMB      28              0.0000000000
      3699        34  POPC      H12B            9.1059051193       25.3273317662       20.1659521775  MEMB      28              0.0000000000
      3700        34  POPC      C13             9.9130294462       23.9575434953       17.1605871237  MEMB      28              0.0000000000
      3701        34  POPC      H13A            9.0569939163       24.3132494242       16.6167778036  MEMB      28              0.0000000000
      3702        34  POPC      H13B           10.7716139590       23.8980149273       16.5072784192  MEMB      28              0.0000000000
      3703        34  POPC      H13C            9.6818895516       22.9396203820       17.4969668050  MEMB      28              0.0000000000
      3704        34  POPC      C14            10.3164808148       26.2324739023       18.0062878398  MEMB      28              0.0000000000
      3705        34  POPC      H14A           10.6692251415       26.8230986054       18.8492762173  MEMB      28              0.0000000000
      3706        34  POPC      H14B           11.0591039830       26.3885747747       17.2250884703  MEMB      28              0.0000000000
      3707        34  POPC      H14C            9.3695013695       26.6333468842       17.6714839051  MEMB      28              0.0000000000
      3708        34  POPC      C15            11.4766278416       24.3298399565       18.9655331343  MEMB      28              0.0000000000
      3709        34  POPC      H15A           11.4435388473       23.2491843472       19.0930786618  MEMB      28              0.0000000000
      3710        34  POPC      H15B           11.6380856572       24.7845356675       19.9326750168  MEMB      28              0.0000000000
      3711        34  POPC      H15C           12.3194442457       24.5817287711       18.3315499045  MEMB      28              0.0000000000
      3712        34  POPC      C11             8.9222331449       23.2218466010       20.0658908360  MEMB      28              0.0000000000
      3713        34  POPC      H11A            8.0471881787       23.2646598227       20.7602569944  MEMB      28              0.0000000000
      3714        34  POPC      H11B            9.8389135483       23.0745729648       20.6889926413  MEMB      28              0.0000000000
      3715        34  POPC      P               8.9377906670       20.6920966792       19.6826742689  MEMB      28              0.0000000000
      3716        34  POPC      O13             7.8457446021       19.7696355766       19.2925770065  MEMB      28              0.0000000000
      3717        34  POPC      O14             9.2354976482       20.7304399510       21.1259208353  MEMB      28              0.0000000000
      3718        34  POPC      O12             8.7266746215       22.1642919305       19.1199238857  MEMB      28              0.0000000000
      3719        34  POPC      O11            10.2838168297       20.3196335556       18.9522317807  MEMB      28              0.0000000000
      3720        34  POPC      C1             11.1363613572       19.3248219568       19.5248886670  MEMB      28              0.0000000000
      3721        34  POPC      HA             10.5588097069       18.4022962638       19.7882525654  MEMB      28              0.0000000000
      3722        34  POPC      HB             11.6017335979       19.7124066267       20.4583366088  MEMB      28              0.0000000000
      3723        34  POPC      C2             12.2373160217       18.8792156684       18.5126056162  MEMB      28              0.0000000000
      3724        34  POPC      HS             12.9452443817       18.2180735431       19.0574037363  MEMB      28              0.0000000000
      3725        34  POPC      O21            12.9681080877       19.9625729130       17.9009952884  MEMB      28              0.0000000000
      3726        34  POPC      C21            13.5139944023       20.8692042773       18.6842801538  MEMB      28              0.0000000000
      3727        34  POPC      O22            13.6510222024       20.7951648651       19.8985987925  MEMB      28              0.0000000000
      3728        34  POPC      C22            13.9386384079       22.0873501049       17.8511875281  MEMB      28              0.0000000000
      3729        34  POPC      H2R            14.9967212673       21.9531193293       17.5595946477  MEMB      28              0.0000000000
      3730        34  POPC      H2S            13.8824299355       22.9687708464       18.5176256423  MEMB      28              0.0000000000
      3731        34  POPC      C3             11.5737884939       18.0315372147       17.3827847789  MEMB      28              0.0000000000
      3732        34  POPC      HX             11.2579009928       17.0621591458       17.8290797565  MEMB      28              0.0000000000
      3733        34  POPC      HY             12.3225196314       17.8047591538       16.5903277543  MEMB      28              0.0000000000
      3734        34  POPC      O31            10.3923213126       18.6758288446       16.8599936559  MEMB      28              0.0000000000
      3735        34  POPC      C31            10.5950211529       19.6196896615       15.9749179568  MEMB      28              0.0000000000
      3736        34  POPC      O32            11.6244803878       19.8010384454       15.3460160252  MEMB      28              0.0000000000
      3737        34  POPC      C32             9.3140434971       20.4281671819       15.7672886522  MEMB      28              0.0000000000
      3738        34  POPC      H2X             9.1006436868       20.9921816365       16.6952911113  MEMB      28              0.0000000000
      3739        34  POPC      H2Y             8.4887243925       19.7070484636       15.5966614695  MEMB      28              0.0000000000
      3740        34  POPC      C23            13.1381906724       22.3011267125       16.5491274258  MEMB      28              0.0000000000
      3741        34  POPC      H3R            12.0500676665       22.2771843407       16.7601694135  MEMB      28              0.0000000000
      3742        34  POPC      H3S            13.3726205244       21.4474958851       15.8718104921  MEMB      28              0.0000000000
      3743        34  POPC      C24            13.5214294898       23.6105090750       15.8396596563  MEMB      28              0.0000000000
      3744        34  POPC      H4R            14.6218631577       23.5930093014       15.6563199592  MEMB      28              0.0000000000
      3745        34  POPC      H4S            13.3158833199       24.4756326006       16.5083887778  MEMB      28              0.0000000000
      3746        34  POPC      C25            12.8031345522       23.8218514194       14.4979623880  MEMB      28              0.0000000000
      3747        34  POPC      H5R            13.1790114840       24.7652420726       14.0423454116  MEMB      28              0.0000000000
      3748        34  POPC      H5S            11.7093349132       23.9367825908       14.6569080920  MEMB      28              0.0000000000
      3749        34  POPC      C26            13.0346941327       22.6713424207       13.5076453103  MEMB      28              0.0000000000
      3750        34  POPC      H6R            12.5028200854       21.7600988581       13.8652835605  MEMB      28              0.0000000000
      3751        34  POPC      H6S            14.1218024399       22.4306348582       13.4743639685  MEMB      28              0.0000000000
      3752        34  POPC      C27            12.5593261680       22.9758244998       12.0800489492  MEMB      28              0.0000000000
      3753        34  POPC      H7R            13.1575708037       23.8198876608       11.6722864046  MEMB      28              0.0000000000
      3754        34  POPC      H7S            11.4936602451       23.2947846697       12.1032318227  MEMB      28              0.0000000000
      3755        34  POPC      C28            12.6910606956       21.7382552799       11.1741253128  MEMB      28              0.0000000000
      3756        34  POPC      H8R            12.0349985689       20.9433345619       11.5884911708  MEMB      28              0.0000000000
      3757        34  POPC      H8S            13.7347594195       21.3595166503       11.2522261983  MEMB      28              0.0000000000
      3758        34  POPC      C29            12.3725851669       22.0346007515        9.7318891437  MEMB      28              0.0000000000
      3759        34  POPC      H91            13.1163249416       22.6783209121        9.2384320223  MEMB      28              0.0000000000
      3760        34  POPC      C210           11.3055074999       21.6413001436        9.0100689846  MEMB      28              0.0000000000
      3761        34  POPC      H101           11.2478327201       21.9669755619        7.9617849769  MEMB      28              0.0000000000
      3762        34  POPC      C211           10.1308678165       20.7993921281        9.4419945076  MEMB      28              0.0000000000
      3763        34  POPC      H11R            9.2026492165       21.4000047828        9.3315867502  MEMB      28              0.0000000000
      3764        34  POPC      H11S           10.1989522548       20.5241372001       10.5175539284  MEMB      28              0.0000000000
      3765        34  POPC      C212            9.9499674305       19.5011434358        8.6247794161  MEMB      28              0.0000000000
      3766        34  POPC      H12R            9.0236688255       18.9913471775        8.9762269139  MEMB      28              0.0000000000
      3767        34  POPC      H12S           10.8019467839       18.8209940945        8.8365559591  MEMB      28              0.0000000000
      3768        34  POPC      C213            9.8600555290       19.6659296517        7.0982552651  MEMB      28              0.0000000000
      3769        34  POPC      H13R            9.7669076272       18.6515647968        6.6449894709  MEMB      28              0.0000000000
      3770        34  POPC      H13S           10.8060980307       20.1110834589        6.7165941719  MEMB      28              0.0000000000
      3771        34  POPC      C214            8.6753767577       20.5194109844        6.6250595127  MEMB      28              0.0000000000
      3772        34  POPC      H14R            8.7610051480       21.5447239671        7.0465460656  MEMB      28              0.0000000000
      3773        34  POPC      H14S            7.7250126819       20.0762295409        6.9992819738  MEMB      28              0.0000000000
      3774        34  POPC      C215            8.6229000174       20.6120777149        5.0932972658  MEMB      28              0.0000000000
      3775        34  POPC      H15R            8.5109227319       19.5813797133        4.6893507776  MEMB      28              0.0000000000
      3776        34  POPC      H15S            9.5906907121       21.0188059565        4.7234930972  MEMB      28              0.0000000000
      3777        34  POPC      C216            7.4849573049       21.5019091748        4.5725881803  MEMB      28              0.0000000000
      3778        34  POPC      H16R            7.5737386961       22.5137378636        5.0281920528  MEMB      28              0.0000000000
      3779        34  POPC      H16S            6.5157589655       21.0794783558        4.9078497563  MEMB      28              0.0000000000
      3780        34  POPC      C217            7.4569618579       21.6404608331        3.0408692035  MEMB      28              0.0000000000
      3781        34  POPC      H17R            8.3350829687       22.2495974865        2.7254918076  MEMB      28              0.0000000000
      3782        34  POPC      H17S            6.5410811561       22.2075265344        2.7564504290  MEMB      28              0.0000000000
      3783        34  POPC      C218            7.4834243634       20.3151905703        2.2721950099  MEMB      28              0.0000000000
      3784        34  POPC      H18R            8.4591319776       19.8035444148        2.4175959089  MEMB      28              0.0000000000
      3785        34  POPC      H18S            7.3467493838       20.4975421888        1.1842326167  MEMB      28              0.0000000000
      3786        34  POPC      H18T            6.6800849252       19.6311061735        2.6174037457  MEMB      28              0.0000000000
      3787        34  POPC      C33             9.4759001670       21.3955951637       14.5756874870  MEMB      28              0.0000000000
      3788        34  POPC      H3X             9.9591372976       20.8540533314       13.7288596024  MEMB      28              0.0000000000
      3789        34  POPC      H3Y            10.1702446841       22.2211287569       14.8432160591  MEMB      28              0.0000000000
      3790        34  POPC      C34             8.1596193586       21.9831855959       14.0473917650  MEMB      28              0.0000000000
      3791        34  POPC      H4X             7.7792624255       22.7473352560       14.7597227004  MEMB      28              0.0000000000
      3792        34  POPC      H4Y             7.3960466443       21.1776787558       13.9606939096  MEMB      28              0.0000000000
      3793        34  POPC      C35             8.4028396551       22.5948739060       12.6628757416  MEMB      28              0.0000000000
      3794        34  POPC      H5X             8.7231018358       21.7778919572       11.9743591399  MEMB      28              0.0000000000
      3795        34  POPC      H5Y             9.2514531383       23.3107825734       12.7442456253  MEMB      28              0.0000000000
      3796        34  POPC      C36             7.2104842380       23.3157927359       12.0168288774  MEMB      28              0.0000000000
      3797        34  POPC      H6X             7.0193293959       24.2729868141       12.5509124810  MEMB      28              0.0000000000
      3798        34  POPC      H6Y             6.2958428146       22.6886305756       12.1096154059  MEMB      28              0.0000000000
      3799        34  POPC      C37             7.4637876930       23.5999400731       10.5236796308  MEMB      28              0.0000000000
      3800        34  POPC      H7X             6.6385395126       24.2062292664       10.0977270916  MEMB      28              0.0000000000
      3801        34  POPC      H7Y             7.4725776483       22.6299579873        9.9784837166  MEMB      28              0.0000000000
      3802        34  POPC      C38             8.7909871011       24.3217016189       10.2543008131  MEMB      28              0.0000000000
      3803        34  POPC      H8X             9.6359899076       23.7096818364       10.6415707763  MEMB      28              0.0000000000
      3804        34  POPC      H8Y             8.8014914562       25.2945378253       10.7932657861  MEMB      28              0.0000000000
      3805        34  POPC      C39             9.0615662645       24.5538326211        8.7658098488  MEMB      28              0.0000000000
      3806        34  POPC      H9X             8.2890982700       25.2346592521        8.3449512999  MEMB      28              0.0000000000
      3807        34  POPC      H9Y             8.9879109682       23.5840052189        8.2260809839  MEMB      28              0.0000000000
      3808        34  POPC      C310           10.4582105015       25.1456719365        8.5527888361  MEMB      28              0.0000000000
      3809        34  POPC      H10X           11.2319808138       24.4994273086        9.0165761005  MEMB      28              0.0000000000
      3810        34  POPC      H10Y           10.4919297324       26.1270037181        9.0823163444  MEMB      28              0.0000000000
      3811        34  POPC      C311           10.7932801439       25.3840758111        7.0805968558  MEMB      28              0.0000000000
      3812        34  POPC      H11X           11.6480457770       26.0971945437        7.0430003927  MEMB      28              0.0000000000
      3813        34  POPC      H11Y            9.9064459969       25.8647852111        6.6114392971  MEMB      28              0.0000000000
      3814        34  POPC      C312           11.1838602962       24.1505361753        6.2531229975  MEMB      28              0.0000000000
      3815        34  POPC      H12X           10.3712511611       23.3914157344        6.2933639300  MEMB      28              0.0000000000
      3816        34  POPC      H12Y           12.1036720768       23.6929962976        6.6782489163  MEMB      28              0.0000000000
      3817        34  POPC      C313           11.4356783117       24.5417315458        4.7887356362  MEMB      28              0.0000000000
      3818        34  POPC      H13X           12.1716002498       25.3778397966        4.7568694575  MEMB      28              0.0000000000
      3819        34  POPC      H13Y           10.4800740606       24.9191117187        4.3566311946  MEMB      28              0.0000000000
      3820        34  POPC      C314           11.9587119043       23.4040603627        3.9035775803  MEMB      28              0.0000000000
      3821        34  POPC      H14X           11.2560603192       22.5425907965        3.9517315812  MEMB      28              0.0000000000
      3822        34  POPC      H14Y           12.9456657316       23.0589192499        4.2839734533  MEMB      28              0.0000000000
      3823        34  POPC      C315           12.1051176342       23.8589876329        2.4438721117  MEMB      28              0.0000000000
      3824        34  POPC      H15X           12.7646059109       24.7571121540        2.4171351787  MEMB      28              0.0000000000
      3825        34  POPC      H15Y           11.1024544055       24.1730789974        2.0735923642  MEMB      28              0.0000000000
      3826        34  POPC      C316           12.6711113314       22.7894866596        1.5056296761  MEMB      28              0.0000000000
      3827        34  POPC      H16X           12.8219319618       23.2058346579        0.4858121871  MEMB      28              0.0000000000
      3828        34  POPC      H16Y           11.9746713905       21.9262329416        1.4349684433  MEMB      28              0.0000000000
      3829        34  POPC      H16Z           13.6523791747       22.4256018030        1.8799496709  MEMB      28              0.0000000000
      3830        35  POPC      N             -20.0956627892      -15.2669231484       20.7437982025  MEMB      29              0.0000000000
      3831        35  POPC      C12           -19.9009939775      -15.5590416977       19.2551920182  MEMB      29              0.0000000000
      3832        35  POPC      H12A          -20.8027622113      -15.3350489106       18.7111310236  MEMB      29              0.0000000000
      3833        35  POPC      H12B          -19.7310379884      -16.6274357326       19.1340418147  MEMB      29              0.0000000000
      3834        35  POPC      C13           -21.0741722997      -16.1661157918       21.4385798730  MEMB      29              0.0000000000
      3835        35  POPC      H13A          -21.1959398722      -15.8266033393       22.4686462041  MEMB      29              0.0000000000
      3836        35  POPC      H13B          -22.0559390179      -16.1581740159       20.9927478622  MEMB      29              0.0000000000
      3837        35  POPC      H13C          -20.6947606805      -17.1848390030       21.5288712751  MEMB      29              0.0000000000
      3838        35  POPC      C14           -18.7848258179      -15.5374183514       21.4062820051  MEMB      29              0.0000000000
      3839        35  POPC      H14A          -18.4701394503      -16.5778660815       21.2969942373  MEMB      29              0.0000000000
      3840        35  POPC      H14B          -18.0225509448      -14.9624259411       20.8825881467  MEMB      29              0.0000000000
      3841        35  POPC      H14C          -18.7910158289      -15.2897296853       22.4539329305  MEMB      29              0.0000000000
      3842        35  POPC      C15           -20.4688300758      -13.8460760762       21.0021160023  MEMB      29              0.0000000000
      3843        35  POPC      H15A          -19.7782310223      -13.1605506968       20.5285376873  MEMB      29              0.0000000000
      3844        35  POPC      H15B          -20.4050336415      -13.6316832181       22.0714140331  MEMB      29              0.0000000000
      3845        35  POPC      H15C          -21.4897425128      -13.6084225628       20.7218990666  MEMB      29              0.0000000000
      3846        35  POPC      C11           -18.6864902908      -14.9555627402       18.4772237993  MEMB      29              0.0000000000
      3847        35  POPC      H11A          -18.7019802480      -13.8481092571       18.5665571660  MEMB      29              0.0000000000
      3848        35  POPC      H11B          -18.8033535535      -15.1917257050       17.3931290041  MEMB      29              0.0000000000
      3849        35  POPC      P             -16.8920779602      -16.9334078875       18.7757944109  MEMB      29              0.0000000000
      3850        35  POPC      O13           -16.4824539692      -17.3229612170       20.1397181506  MEMB      29              0.0000000000
      3851        35  POPC      O14           -15.8693745382      -17.0056335484       17.7116928538  MEMB      29              0.0000000000
      3852        35  POPC      O12           -17.4184648527      -15.4315161924       18.9195020978  MEMB      29              0.0000000000
      3853        35  POPC      O11           -18.2241516081      -17.6914867450       18.3567918347  MEMB      29              0.0000000000
      3854        35  POPC      C1            -18.8815232353      -18.5867579986       19.2548932081  MEMB      29              0.0000000000
      3855        35  POPC      HA            -19.2703750051      -18.0573983796       20.1474954221  MEMB      29              0.0000000000
      3856        35  POPC      HB            -18.1594519086      -19.3369333786       19.6568065667  MEMB      29              0.0000000000
      3857        35  POPC      C2            -20.0759226605      -19.3097763308       18.5416661225  MEMB      29              0.0000000000
      3858        35  POPC      HS            -20.4029252547      -20.1374763925       19.2116456891  MEMB      29              0.0000000000
      3859        35  POPC      O21           -19.7157194776      -19.8531031486       17.2633727058  MEMB      29              0.0000000000
      3860        35  POPC      C21           -18.5261838179      -20.4252083339       17.2162397352  MEMB      29              0.0000000000
      3861        35  POPC      O22           -18.0003653988      -21.0564547137       18.1162295435  MEMB      29              0.0000000000
      3862        35  POPC      C22           -17.9278093265      -20.2556143726       15.8351305618  MEMB      29              0.0000000000
      3863        35  POPC      H2R           -18.5922176043      -19.6292705783       15.2032032143  MEMB      29              0.0000000000
      3864        35  POPC      H2S           -17.8379603819      -21.2511523783       15.3641144700  MEMB      29              0.0000000000
      3865        35  POPC      C3            -21.3171612978      -18.3865328612       18.2930401307  MEMB      29              0.0000000000
      3866        35  POPC      HX            -21.6120437057      -17.9203533800       19.2556349096  MEMB      29              0.0000000000
      3867        35  POPC      HY            -22.1539668691      -19.0445281455       17.9680531481  MEMB      29              0.0000000000
      3868        35  POPC      O31           -21.0331803314      -17.3713143735       17.3009232565  MEMB      29              0.0000000000
      3869        35  POPC      C31           -22.0315334128      -16.9761619836       16.5143006691  MEMB      29              0.0000000000
      3870        35  POPC      O32           -23.2194885557      -17.0797462546       16.7778406338  MEMB      29              0.0000000000
      3871        35  POPC      C32           -21.4430568928      -16.1439096614       15.3868450696  MEMB      29              0.0000000000
      3872        35  POPC      H2X           -20.7969902552      -15.3555599952       15.8276154389  MEMB      29              0.0000000000
      3873        35  POPC      H2Y           -22.2842353105      -15.6601645935       14.8480782976  MEMB      29              0.0000000000
      3874        35  POPC      C23           -16.5593890816      -19.5748352414       15.9827699901  MEMB      29              0.0000000000
      3875        35  POPC      H3R           -16.0376625250      -19.8309827812       16.9372338598  MEMB      29              0.0000000000
      3876        35  POPC      H3S           -16.7513864361      -18.4776503852       16.0279237495  MEMB      29              0.0000000000
      3877        35  POPC      C24           -15.5860254088      -19.8559600510       14.8425715484  MEMB      29              0.0000000000
      3878        35  POPC      H4R           -16.1351462937      -20.1738314523       13.9282563779  MEMB      29              0.0000000000
      3879        35  POPC      H4S           -14.9202720768      -20.6868162364       15.1509169049  MEMB      29              0.0000000000
      3880        35  POPC      C25           -14.7724009830      -18.5928244320       14.5333902944  MEMB      29              0.0000000000
      3881        35  POPC      H5R           -13.8523389700      -18.8670939062       13.9792716665  MEMB      29              0.0000000000
      3882        35  POPC      H5S           -14.4407393497      -18.1094603192       15.4824340799  MEMB      29              0.0000000000
      3883        35  POPC      C26           -15.6280975527      -17.5937795378       13.7398871250  MEMB      29              0.0000000000
      3884        35  POPC      H6R           -16.1447329714      -16.9088420874       14.4509302793  MEMB      29              0.0000000000
      3885        35  POPC      H6S           -16.4248895045      -18.1540684292       13.1972107783  MEMB      29              0.0000000000
      3886        35  POPC      C27           -14.8603616022      -16.7910222323       12.6853334011  MEMB      29              0.0000000000
      3887        35  POPC      H7R           -14.0612891420      -16.1951274212       13.1772130910  MEMB      29              0.0000000000
      3888        35  POPC      H7S           -15.5993497047      -16.0927240656       12.2322027612  MEMB      29              0.0000000000
      3889        35  POPC      C28           -14.2660557546      -17.6825925192       11.5868392032  MEMB      29              0.0000000000
      3890        35  POPC      H8R           -15.0160099676      -18.4722583109       11.3598613618  MEMB      29              0.0000000000
      3891        35  POPC      H8S           -13.3706222056      -18.1961663312       11.9929755550  MEMB      29              0.0000000000
      3892        35  POPC      C29           -13.8747867545      -16.9320849987       10.3462180409  MEMB      29              0.0000000000
      3893        35  POPC      H91           -12.8860597781      -16.4509568111       10.3839044730  MEMB      29              0.0000000000
      3894        35  POPC      C210          -14.6145647742      -16.7917343224        9.2371288032  MEMB      29              0.0000000000
      3895        35  POPC      H101          -14.1923392090      -16.2243711065        8.4061114635  MEMB      29              0.0000000000
      3896        35  POPC      C211          -15.9899945146      -17.3323833195        8.9536997587  MEMB      29              0.0000000000
      3897        35  POPC      H11R          -16.7127713991      -16.4947937371        8.8291304261  MEMB      29              0.0000000000
      3898        35  POPC      H11S          -16.3744006258      -17.9748303768        9.7762904588  MEMB      29              0.0000000000
      3899        35  POPC      C212          -15.9529700773      -18.1346991946        7.6466291498  MEMB      29              0.0000000000
      3900        35  POPC      H12R          -15.2357700003      -18.9774522798        7.7635885221  MEMB      29              0.0000000000
      3901        35  POPC      H12S          -15.5907154896      -17.4968104004        6.8089985671  MEMB      29              0.0000000000
      3902        35  POPC      C213          -17.3253723038      -18.7032707868        7.2788788973  MEMB      29              0.0000000000
      3903        35  POPC      H13R          -17.9964099126      -17.8946031240        6.9191653014  MEMB      29              0.0000000000
      3904        35  POPC      H13S          -17.7770564542      -19.1270685476        8.2070260083  MEMB      29              0.0000000000
      3905        35  POPC      C214          -17.2271017189      -19.8397096636        6.2575825653  MEMB      29              0.0000000000
      3906        35  POPC      H14R          -18.1848610810      -20.4037356341        6.2611303528  MEMB      29              0.0000000000
      3907        35  POPC      H14S          -16.4338455585      -20.5297221267        6.6126137454  MEMB      29              0.0000000000
      3908        35  POPC      C215          -16.9154560779      -19.4181287549        4.8121513917  MEMB      29              0.0000000000
      3909        35  POPC      H15R          -16.5835294630      -20.3242546484        4.2614211586  MEMB      29              0.0000000000
      3910        35  POPC      H15S          -16.0792565661      -18.6882730566        4.7859366600  MEMB      29              0.0000000000
      3911        35  POPC      C216          -18.1568212097      -18.8595257755        4.1074759631  MEMB      29              0.0000000000
      3912        35  POPC      H16R          -18.3379255900      -17.8454069829        4.5181073466  MEMB      29              0.0000000000
      3913        35  POPC      H16S          -19.0268024807      -19.4926241722        4.3804928616  MEMB      29              0.0000000000
      3914        35  POPC      C217          -18.1118103150      -18.7918147919        2.5721269765  MEMB      29              0.0000000000
      3915        35  POPC      H17R          -17.3469611296      -18.0464273749        2.2805291621  MEMB      29              0.0000000000
      3916        35  POPC      H17S          -19.0851297872      -18.3840158603        2.2182972066  MEMB      29              0.0000000000
      3917        35  POPC      C218          -17.8587868376      -20.1239333514        1.8504710315  MEMB      29              0.0000000000
      3918        35  POPC      H18R          -17.9022042722      -19.9817467494        0.7498373154  MEMB      29              0.0000000000
      3919        35  POPC      H18S          -18.6236490479      -20.8758118244        2.1337682572  MEMB      29              0.0000000000
      3920        35  POPC      H18T          -16.8595102005      -20.5349214385        2.1047930836  MEMB      29              0.0000000000
      3921        35  POPC      C33           -20.6186988240      -16.9700517284       14.3764069926  MEMB      29              0.0000000000
      3922        35  POPC      H3X           -21.3047659228      -17.6646290351       13.8415336620  MEMB      29              0.0000000000
      3923        35  POPC      H3Y           -19.8475179093      -17.5911942330       14.8865623405  MEMB      29              0.0000000000
      3924        35  POPC      C34           -19.9279401210      -16.0556545839       13.3571774246  MEMB      29              0.0000000000
      3925        35  POPC      H4X           -19.0821968988      -15.5279706014       13.8528884819  MEMB      29              0.0000000000
      3926        35  POPC      H4Y           -20.6504233822      -15.2790759632       13.0138402754  MEMB      29              0.0000000000
      3927        35  POPC      C35           -19.4118448021      -16.7958431743       12.1188258756  MEMB      29              0.0000000000
      3928        35  POPC      H5X           -18.6970276597      -17.5955631420       12.4126288506  MEMB      29              0.0000000000
      3929        35  POPC      H5Y           -18.8573018094      -16.0662194368       11.4850627063  MEMB      29              0.0000000000
      3930        35  POPC      C36           -20.5540723838      -17.3948204344       11.2915235330  MEMB      29              0.0000000000
      3931        35  POPC      H6X           -21.4281776593      -16.7027166027       11.3364470454  MEMB      29              0.0000000000
      3932        35  POPC      H6Y           -20.8718220552      -18.3658565393       11.7344399670  MEMB      29              0.0000000000
      3933        35  POPC      C37           -20.1810664846      -17.5728700614        9.8168079631  MEMB      29              0.0000000000
      3934        35  POPC      H7X           -19.2936784985      -18.2366832150        9.7255622332  MEMB      29              0.0000000000
      3935        35  POPC      H7Y           -19.9075367127      -16.5769933171        9.4024471866  MEMB      29              0.0000000000
      3936        35  POPC      C38           -21.3546412831      -18.1560485448        9.0268132901  MEMB      29              0.0000000000
      3937        35  POPC      H8X           -22.2677360350      -17.5524928969        9.2319531010  MEMB      29              0.0000000000
      3938        35  POPC      H8Y           -21.5306928092      -19.1847265467        9.4105341343  MEMB      29              0.0000000000
      3939        35  POPC      C39           -21.1406417995      -18.2270974677        7.5119228991  MEMB      29              0.0000000000
      3940        35  POPC      H9X           -22.0412034898      -18.6980799109        7.0545795629  MEMB      29              0.0000000000
      3941        35  POPC      H9Y           -20.2777337107      -18.8956901377        7.2947084787  MEMB      29              0.0000000000
      3942        35  POPC      C310          -20.9088788609      -16.8634729760        6.8385029968  MEMB      29              0.0000000000
      3943        35  POPC      H10X          -19.9094557635      -16.4797068626        7.1421209168  MEMB      29              0.0000000000
      3944        35  POPC      H10Y          -21.6755984795      -16.1294851377        7.1696143293  MEMB      29              0.0000000000
      3945        35  POPC      C311          -20.9580913822      -17.0100126519        5.3146498002  MEMB      29              0.0000000000
      3946        35  POPC      H11X          -22.0082863263      -17.0591493163        4.9550807038  MEMB      29              0.0000000000
      3947        35  POPC      H11Y          -20.5003406816      -17.9997415701        5.0914643213  MEMB      29              0.0000000000
      3948        35  POPC      C312          -20.1560635276      -15.9739822777        4.5152823117  MEMB      29              0.0000000000
      3949        35  POPC      H12X          -19.7954500151      -16.5023149087        3.6037833527  MEMB      29              0.0000000000
      3950        35  POPC      H12Y          -19.2574567865      -15.6437291812        5.0785804585  MEMB      29              0.0000000000
      3951        35  POPC      C313          -20.9828855258      -14.7753512656        4.0509128699  MEMB      29              0.0000000000
      3952        35  POPC      H13X          -21.1367672270      -14.0976260876        4.9179949662  MEMB      29              0.0000000000
      3953        35  POPC      H13Y          -21.9864312573      -15.1273406688        3.7186146624  MEMB      29              0.0000000000
      3954        35  POPC      C314          -20.3406493598      -14.0117987203        2.8802623163  MEMB      29              0.0000000000
      3955        35  POPC      H14X          -19.3527005986      -13.6025221687        3.1839921780  MEMB      29              0.0000000000
      3956        35  POPC      H14Y          -21.0052450853      -13.1559818015        2.6320295188  MEMB      29              0.0000000000
      3957        35  POPC      C315          -20.1888717185      -14.8343397542        1.5930688756  MEMB      29              0.0000000000
      3958        35  POPC      H15X          -21.1329441668      -15.3955510084        1.4282950556  MEMB      29              0.0000000000
      3959        35  POPC      H15Y          -19.3768009143      -15.5857160569        1.7073518805  MEMB      29              0.0000000000
      3960        35  POPC      C316          -19.9090491963      -13.9679332981        0.3663524029  MEMB      29              0.0000000000
      3961        35  POPC      H16X          -19.8278635664      -14.5909740679       -0.5491150372  MEMB      29              0.0000000000
      3962        35  POPC      H16Y          -18.9538782571      -13.4148050987        0.4974415549  MEMB      29              0.0000000000
      3963        35  POPC      H16Z          -20.7296991645      -13.2322049133        0.2175219735  MEMB      29              0.0000000000
      3964        36  POPC      N               5.7988452739      -26.6625039947       18.5970477417  MEMB      30              0.0000000000
      3965        36  POPC      C12             4.5418828342      -25.8861869644       18.9565243668  MEMB      30              0.0000000000
      3966        36  POPC      H12A            3.6878387892      -26.5651789821       18.9910828721  MEMB      30              0.0000000000
      3967        36  POPC      H12B            4.3291869267      -25.1914260827       18.1564009051  MEMB      30              0.0000000000
      3968        36  POPC      C13             6.2700214490      -27.3740518382       19.8283243042  MEMB      30              0.0000000000
      3969        36  POPC      H13A            6.5748788219      -26.6098264607       20.5399281473  MEMB      30              0.0000000000
      3970        36  POPC      H13B            5.4535118656      -27.9336455161       20.2666824905  MEMB      30              0.0000000000
      3971        36  POPC      H13C            7.0824931468      -28.0448838977       19.5818329526  MEMB      30              0.0000000000
      3972        36  POPC      C14             5.5604489848      -27.6699544312       17.5364532176  MEMB      30              0.0000000000
      3973        36  POPC      H14A            5.1781582904      -27.2324831378       16.6219184344  MEMB      30              0.0000000000
      3974        36  POPC      H14B            6.4610500908      -28.2371280296       17.2983197968  MEMB      30              0.0000000000
      3975        36  POPC      H14C            4.8395753253      -28.4091861784       17.8600053371  MEMB      30              0.0000000000
      3976        36  POPC      C15             6.8488686270      -25.6860319509       18.1510374366  MEMB      30              0.0000000000
      3977        36  POPC      H15A            7.0855014540      -25.0060875042       18.9745313069  MEMB      30              0.0000000000
      3978        36  POPC      H15B            6.4663998672      -25.0622500544       17.3531865920  MEMB      30              0.0000000000
      3979        36  POPC      H15C            7.7589248340      -26.1656999015       17.8389821533  MEMB      30              0.0000000000
      3980        36  POPC      C11             4.5683316245      -25.0350515214       20.2562588132  MEMB      30              0.0000000000
      3981        36  POPC      H11A            4.1972576205      -25.6757557410       21.0705539239  MEMB      30              0.0000000000
      3982        36  POPC      H11B            3.8002442394      -24.2257774531       20.1570785747  MEMB      30              0.0000000000
      3983        36  POPC      P               6.1863834713      -23.0170030325       20.8111529323  MEMB      30              0.0000000000
      3984        36  POPC      O13             7.5484926890      -22.7553935756       20.3169559069  MEMB      30              0.0000000000
      3985        36  POPC      O14             5.9676345003      -22.7026707343       22.2468315913  MEMB      30              0.0000000000
      3986        36  POPC      O12             5.8794328898      -24.5611069598       20.6005789039  MEMB      30              0.0000000000
      3987        36  POPC      O11             5.1127116056      -22.3760790176       19.8366539034  MEMB      30              0.0000000000
      3988        36  POPC      C1              5.5324492972      -22.0934942420       18.4839887473  MEMB      30              0.0000000000
      3989        36  POPC      HA              6.3616548259      -22.7471417858       18.1211752409  MEMB      30              0.0000000000
      3990        36  POPC      HB              5.9173752856      -21.0517232187       18.4553806938  MEMB      30              0.0000000000
      3991        36  POPC      C2              4.4002385421      -22.2088077601       17.4186529899  MEMB      30              0.0000000000
      3992        36  POPC      HS              3.4792261720      -21.7722006784       17.8627002245  MEMB      30              0.0000000000
      3993        36  POPC      O21             4.2212371759      -23.6171737996       17.0903721933  MEMB      30              0.0000000000
      3994        36  POPC      C21             3.6111439573      -23.9482004284       15.9627499997  MEMB      30              0.0000000000
      3995        36  POPC      O22             2.9241483425      -23.2250874403       15.2743382471  MEMB      30              0.0000000000
      3996        36  POPC      C22             3.9774914542      -25.3901806106       15.6109346371  MEMB      30              0.0000000000
      3997        36  POPC      H2R             3.6623205756      -26.0286310230       16.4562255494  MEMB      30              0.0000000000
      3998        36  POPC      H2S             5.0774508624      -25.4502025522       15.4811922882  MEMB      30              0.0000000000
      3999        36  POPC      C3              4.7971506856      -21.3290742622       16.1789721606  MEMB      30              0.0000000000
      4000        36  POPC      HX              5.1331779558      -20.3386775470       16.5581352311  MEMB      30              0.0000000000
      4001        36  POPC      HY              3.8878698083      -21.1257464832       15.5694619636  MEMB      30              0.0000000000
      4002        36  POPC      O31             5.8731073675      -21.9453764187       15.4385496456  MEMB      30              0.0000000000
      4003        36  POPC      C31             5.7468334017      -21.9798810595       14.1156786217  MEMB      30              0.0000000000
      4004        36  POPC      O32             4.8819365180      -21.4469449248       13.4509927721  MEMB      30              0.0000000000
      4005        36  POPC      C32             6.8436450006      -22.9136668774       13.5864820044  MEMB      30              0.0000000000
      4006        36  POPC      H2X             6.6343365973      -23.9429249134       13.9448905824  MEMB      30              0.0000000000
      4007        36  POPC      H2Y             7.7986144547      -22.5773598697       14.0406612452  MEMB      30              0.0000000000
      4008        36  POPC      C23             3.2775180464      -25.9030601721       14.3397679141  MEMB      30              0.0000000000
      4009        36  POPC      H3R             2.1891841030      -25.6790354275       14.3740287543  MEMB      30              0.0000000000
      4010        36  POPC      H3S             3.3908608259      -27.0101015933       14.2971486550  MEMB      30              0.0000000000
      4011        36  POPC      C24             3.8871179860      -25.3285955363       13.0662580607  MEMB      30              0.0000000000
      4012        36  POPC      H4R             4.9548489905      -25.6412811164       12.9913881857  MEMB      30              0.0000000000
      4013        36  POPC      H4S             3.8644018445      -24.2140023372       13.0984560400  MEMB      30              0.0000000000
      4014        36  POPC      C25             3.1381581157      -25.7771190759       11.8106351256  MEMB      30              0.0000000000
      4015        36  POPC      H5R             2.1250924898      -25.3234322949       11.7836184953  MEMB      30              0.0000000000
      4016        36  POPC      H5S             3.0054601074      -26.8782867099       11.8196866275  MEMB      30              0.0000000000
      4017        36  POPC      C26             3.9126411351      -25.3264144940       10.5741135737  MEMB      30              0.0000000000
      4018        36  POPC      H6R             4.9001308883      -25.8387222671       10.5607803967  MEMB      30              0.0000000000
      4019        36  POPC      H6S             4.1018293575      -24.2337272145       10.6740958761  MEMB      30              0.0000000000
      4020        36  POPC      C27             3.1971389498      -25.5925202850        9.2462950530  MEMB      30              0.0000000000
      4021        36  POPC      H7R             2.2422138348      -25.0220874666        9.2112819365  MEMB      30              0.0000000000
      4022        36  POPC      H7S             2.9414721674      -26.6753919087        9.1892432607  MEMB      30              0.0000000000
      4023        36  POPC      C28             4.0849378701      -25.2274801443        8.0427220904  MEMB      30              0.0000000000
      4024        36  POPC      H8R             3.5751457807      -25.5734070986        7.1165581191  MEMB      30              0.0000000000
      4025        36  POPC      H8S             5.0195568596      -25.8251225745        8.1101840119  MEMB      30              0.0000000000
      4026        36  POPC      C29             4.4233532156      -23.7524376873        8.0062250565  MEMB      30              0.0000000000
      4027        36  POPC      H91             4.9160738930      -23.3511090523        8.9035352492  MEMB      30              0.0000000000
      4028        36  POPC      C210            4.1918211627      -22.9121529962        6.9907481377  MEMB      30              0.0000000000
      4029        36  POPC      H101            4.5044947469      -21.8597035886        7.0675512961  MEMB      30              0.0000000000
      4030        36  POPC      C211            3.5462345189      -23.3207307917        5.7036588137  MEMB      30              0.0000000000
      4031        36  POPC      H11R            4.0320452815      -24.2459022811        5.3150673437  MEMB      30              0.0000000000
      4032        36  POPC      H11S            3.7137785409      -22.5315530385        4.9381969394  MEMB      30              0.0000000000
      4033        36  POPC      C212            2.0354106918      -23.5865733944        5.8514649665  MEMB      30              0.0000000000
      4034        36  POPC      H12R            1.5180576030      -22.6085756201        5.9715469313  MEMB      30              0.0000000000
      4035        36  POPC      H12S            1.8083276337      -24.1897989797        6.7586416432  MEMB      30              0.0000000000
      4036        36  POPC      C213            1.4596848862      -24.3182916671        4.6320798413  MEMB      30              0.0000000000
      4037        36  POPC      H13R            0.3492895593      -24.2811565481        4.6789110489  MEMB      30              0.0000000000
      4038        36  POPC      H13S            1.7664385402      -25.3880404529        4.6506632175  MEMB      30              0.0000000000
      4039        36  POPC      C214            1.9465752404      -23.6821222881        3.3304951656  MEMB      30              0.0000000000
      4040        36  POPC      H14R            3.0441784119      -23.8385123204        3.2194769684  MEMB      30              0.0000000000
      4041        36  POPC      H14S            1.7571841798      -22.5878896604        3.4042097025  MEMB      30              0.0000000000
      4042        36  POPC      C215            1.2832510213      -24.2387763396        2.0763763082  MEMB      30              0.0000000000
      4043        36  POPC      H15R            0.1949779923      -24.0367785461        2.1146696573  MEMB      30              0.0000000000
      4044        36  POPC      H15S            1.4147620685      -25.3434946894        2.0594208706  MEMB      30              0.0000000000
      4045        36  POPC      C216            1.9029130027      -23.6359883411        0.8074360573  MEMB      30              0.0000000000
      4046        36  POPC      H16R            1.4100806798      -24.0803275170       -0.0838257634  MEMB      30              0.0000000000
      4047        36  POPC      H16S            2.9773013711      -23.9102351553        0.7920794460  MEMB      30              0.0000000000
      4048        36  POPC      C217            1.7838268080      -22.1185583156        0.6974182686  MEMB      30              0.0000000000
      4049        36  POPC      H17R            2.3983804535      -21.7670604813       -0.1619661891  MEMB      30              0.0000000000
      4050        36  POPC      H17S            2.1998708353      -21.6282208829        1.6032367825  MEMB      30              0.0000000000
      4051        36  POPC      C218            0.3385398440      -21.6941909008        0.4885534761  MEMB      30              0.0000000000
      4052        36  POPC      H18R            0.0698652526      -21.7676192892       -0.5873242890  MEMB      30              0.0000000000
      4053        36  POPC      H18S            0.1707067832      -20.6572897619        0.8357794037  MEMB      30              0.0000000000
      4054        36  POPC      H18T           -0.3470395318      -22.3430722476        1.0585765982  MEMB      30              0.0000000000
      4055        36  POPC      C33             7.0011416857      -22.9256713304       12.0428963083  MEMB      30              0.0000000000
      4056        36  POPC      H3X             7.0193045146      -21.8847313008       11.6459640307  MEMB      30              0.0000000000
      4057        36  POPC      H3Y             6.1269197866      -23.4440920443       11.5936601923  MEMB      30              0.0000000000
      4058        36  POPC      C34             8.3130108489      -23.6205621112       11.6459394283  MEMB      30              0.0000000000
      4059        36  POPC      H4X             8.3793704167      -24.5621060501       12.2320527789  MEMB      30              0.0000000000
      4060        36  POPC      H4Y             9.1651914129      -22.9749578866       11.9584839920  MEMB      30              0.0000000000
      4061        36  POPC      C35             8.4711717046      -23.9773823278       10.1579843697  MEMB      30              0.0000000000
      4062        36  POPC      H5X             9.5050802311      -24.3679924972       10.0179239316  MEMB      30              0.0000000000
      4063        36  POPC      H5Y             8.3676923754      -23.0691711850        9.5268522913  MEMB      30              0.0000000000
      4064        36  POPC      C36             7.4793476309      -25.0585135737        9.7070883399  MEMB      30              0.0000000000
      4065        36  POPC      H6X             6.5019504966      -24.5770956449        9.5186550947  MEMB      30              0.0000000000
      4066        36  POPC      H6Y             7.3289659674      -25.7751482446       10.5467231573  MEMB      30              0.0000000000
      4067        36  POPC      C37             7.9001216892      -25.8825381054        8.4788602111  MEMB      30              0.0000000000
      4068        36  POPC      H7X             7.1035457161      -26.6387737344        8.2921455041  MEMB      30              0.0000000000
      4069        36  POPC      H7Y             8.8260878315      -26.4400618838        8.7162736905  MEMB      30              0.0000000000
      4070        36  POPC      C38             8.1289252037      -25.0934105985        7.1810617551  MEMB      30              0.0000000000
      4071        36  POPC      H8X             9.0604084868      -24.4924948927        7.2653182713  MEMB      30              0.0000000000
      4072        36  POPC      H8Y             7.2813789853      -24.3888421267        7.0281620302  MEMB      30              0.0000000000
      4073        36  POPC      C39             8.2111659960      -26.0384802582        5.9678222213  MEMB      30              0.0000000000
      4074        36  POPC      H9X             7.2269520374      -26.5488652336        5.8736030019  MEMB      30              0.0000000000
      4075        36  POPC      H9Y             8.9809587874      -26.8196284816        6.1592949402  MEMB      30              0.0000000000
      4076        36  POPC      C310            8.5417240840      -25.3296123106        4.6440514328  MEMB      30              0.0000000000
      4077        36  POPC      H10X            9.6157893240      -25.0354936738        4.6673495899  MEMB      30              0.0000000000
      4078        36  POPC      H10Y            7.9437515860      -24.3965096443        4.5699882298  MEMB      30              0.0000000000
      4079        36  POPC      C311            8.2922942713      -26.2010059476        3.3948146745  MEMB      30              0.0000000000
      4080        36  POPC      H11X            8.7178824336      -27.2125504162        3.5789616570  MEMB      30              0.0000000000
      4081        36  POPC      H11Y            8.8440833809      -25.7728401194        2.5283904945  MEMB      30              0.0000000000
      4082        36  POPC      C312            6.8085167994      -26.3408585726        3.0011255157  MEMB      30              0.0000000000
      4083        36  POPC      H12X            6.2293385978      -26.6607072960        3.8958731869  MEMB      30              0.0000000000
      4084        36  POPC      H12Y            6.7032764249      -27.1456570896        2.2411510332  MEMB      30              0.0000000000
      4085        36  POPC      C313            6.1639986592      -25.0594026586        2.4403286203  MEMB      30              0.0000000000
      4086        36  POPC      H13X            6.3230237240      -24.2234800932        3.1539460639  MEMB      30              0.0000000000
      4087        36  POPC      H13Y            5.0650760458      -25.2182864639        2.3762039203  MEMB      30              0.0000000000
      4088        36  POPC      C314            6.6642973866      -24.6609405303        1.0425761346  MEMB      30              0.0000000000
      4089        36  POPC      H14X            6.6360945810      -25.5509046384        0.3738885112  MEMB      30              0.0000000000
      4090        36  POPC      H14Y            7.7232152751      -24.3348768411        1.1113441091  MEMB      30              0.0000000000
      4091        36  POPC      C315            5.8383925351      -23.5370559826        0.3925585128  MEMB      30              0.0000000000
      4092        36  POPC      H15X            4.8913071968      -23.9751312261        0.0096627486  MEMB      30              0.0000000000
      4093        36  POPC      H15Y            6.3854400797      -23.1483957159       -0.4916316584  MEMB      30              0.0000000000
      4094        36  POPC      C316            5.5169267844      -22.3568868841        1.3090724416  MEMB      30              0.0000000000
      4095        36  POPC      H16X            4.9903671907      -21.5592750950        0.7413923402  MEMB      30              0.0000000000
      4096        36  POPC      H16Y            6.4509111453      -21.9331268780        1.7373234110  MEMB      30              0.0000000000
      4097        36  POPC      H16Z            4.8565711979      -22.6693158045        2.1450221750  MEMB      30              0.0000000000
      4098        37  POPS      N               1.2503199112       26.0618378976       21.1175186585  MEMB      31              0.0000000000
      4099        37  POPS      HN1             0.2968095428       26.0826609565       20.6759295246  MEMB      31              0.0000000000
      4100        37  POPS      HN2             1.2112224119       25.6949672903       22.0883742129  MEMB      31              0.0000000000
      4101        37  POPS      HN3             1.5747740936       27.0421688140       21.1469781802  MEMB      31              0.0000000000
      4102        37  POPS      C12             2.2330470619       25.3367938709       20.2501533906  MEMB      31              0.0000000000
      4103        37  POPS      H12A            1.8508815506       24.3362170349       20.0844335602  MEMB      31              0.0000000000
      4104        37  POPS      C13             3.6317857262       25.2162144997       20.9157301261  MEMB      31              0.0000000000
      4105        37  POPS      O13A            3.7602897602       25.5731205661       22.1228159240  MEMB      31              0.0000000000
      4106        37  POPS      O13B            4.5805760945       24.7083013696       20.2669974581  MEMB      31              0.0000000000
      4107        37  POPS      C11             2.3055988361       26.0560554708       18.8744845290  MEMB      31              0.0000000000
      4108        37  POPS      H11A            2.8405823216       25.3699897630       18.1712325453  MEMB      31              0.0000000000
      4109        37  POPS      H11B            2.8964576277       26.9971227991       18.9583156504  MEMB      31              0.0000000000
      4110        37  POPS      P               0.6734421677       26.8055920430       16.9362086764  MEMB      31              0.0000000000
      4111        37  POPS      O13            -0.7673538162       26.7678253664       16.6540968555  MEMB      31              0.0000000000
      4112        37  POPS      O14             1.6072858000       26.0834624599       16.0527861195  MEMB      31              0.0000000000
      4113        37  POPS      O12             0.9752003245       26.3302655045       18.4241840542  MEMB      31              0.0000000000
      4114        37  POPS      O11             1.1045206116       28.3136724355       17.0574099396  MEMB      31              0.0000000000
      4115        37  POPS      C1              0.6172692391       29.1079851295       18.1436500256  MEMB      31              0.0000000000
      4116        37  POPS      HA              1.0175297926       28.7449313850       19.1164420749  MEMB      31              0.0000000000
      4117        37  POPS      HB             -0.4968731295       29.0651538276       18.1903815362  MEMB      31              0.0000000000
      4118        37  POPS      C2              1.0446545431       30.5891923143       17.9489946552  MEMB      31              0.0000000000
      4119        37  POPS      HS              0.4406766460       31.2312358814       18.6285060827  MEMB      31              0.0000000000
      4120        37  POPS      O21             0.8550310290       30.9719885323       16.5818595013  MEMB      31              0.0000000000
      4121        37  POPS      C21            -0.3836066504       30.9366810395       16.1685748452  MEMB      31              0.0000000000
      4122        37  POPS      O22            -1.3653031743       31.1342048896       16.8751805343  MEMB      31              0.0000000000
      4123        37  POPS      C22            -0.4474443114       30.8084190832       14.6486648345  MEMB      31              0.0000000000
      4124        37  POPS      H2R            -0.4927515621       31.8300682382       14.2209450402  MEMB      31              0.0000000000
      4125        37  POPS      H2S            -1.4028231112       30.2906344421       14.4219143442  MEMB      31              0.0000000000
      4126        37  POPS      C3              2.5359336666       30.8062161082       18.3303119178  MEMB      31              0.0000000000
      4127        37  POPS      HX              2.5970520625       30.6193784964       19.4214636590  MEMB      31              0.0000000000
      4128        37  POPS      HY              2.8448686487       31.8613552774       18.1524788760  MEMB      31              0.0000000000
      4129        37  POPS      O31             3.4127527246       29.8630487550       17.6993676185  MEMB      31              0.0000000000
      4130        37  POPS      C31             3.6679163362       30.0687776426       16.4077408210  MEMB      31              0.0000000000
      4131        37  POPS      O32             3.4090072548       31.0783876481       15.7743681222  MEMB      31              0.0000000000
      4132        37  POPS      C32             4.3458979063       28.7984508574       15.8754040396  MEMB      31              0.0000000000
      4133        37  POPS      H2X             3.7620066647       27.9397576238       16.2759942686  MEMB      31              0.0000000000
      4134        37  POPS      H2Y             5.3578071282       28.7567691028       16.3250406986  MEMB      31              0.0000000000
      4135        37  POPS      C23             0.7080844890       30.0298639080       13.9709867375  MEMB      31              0.0000000000
      4136        37  POPS      H3R             0.9383311087       29.0939287697       14.5302893659  MEMB      31              0.0000000000
      4137        37  POPS      H3S             1.6302730446       30.6527597146       13.9562100495  MEMB      31              0.0000000000
      4138        37  POPS      C24             0.2797974501       29.6732047756       12.5441740307  MEMB      31              0.0000000000
      4139        37  POPS      H4R            -0.3066134963       30.5382045436       12.1573990089  MEMB      31              0.0000000000
      4140        37  POPS      H4S            -0.3882041206       28.7860968684       12.5896880786  MEMB      31              0.0000000000
      4141        37  POPS      C25             1.3874943793       29.3997050460       11.5241578451  MEMB      31              0.0000000000
      4142        37  POPS      H5R             1.7400295388       28.3513260841       11.6417142963  MEMB      31              0.0000000000
      4143        37  POPS      H5S             2.2523126323       30.0753612862       11.7073402350  MEMB      31              0.0000000000
      4144        37  POPS      C26             0.8672626294       29.6181633193       10.0935265203  MEMB      31              0.0000000000
      4145        37  POPS      H6R             0.5471504542       30.6792696859        9.9931630924  MEMB      31              0.0000000000
      4146        37  POPS      H6S            -0.0271544968       28.9778585654        9.9208845011  MEMB      31              0.0000000000
      4147        37  POPS      C27             1.9141611521       29.2881330565        9.0244728198  MEMB      31              0.0000000000
      4148        37  POPS      H7R             2.0758568502       28.1915286185        9.0348432488  MEMB      31              0.0000000000
      4149        37  POPS      H7S             2.8802967758       29.7644167164        9.2831026941  MEMB      31              0.0000000000
      4150        37  POPS      C28             1.5144174498       29.7022532065        7.6013049286  MEMB      31              0.0000000000
      4151        37  POPS      H8R             0.5325412571       29.2315370294        7.3658932027  MEMB      31              0.0000000000
      4152        37  POPS      H8S             2.2608514482       29.2733988433        6.8944528957  MEMB      31              0.0000000000
      4153        37  POPS      C29             1.4863121705       31.2018067135        7.4540832570  MEMB      31              0.0000000000
      4154        37  POPS      H91             2.2599358191       31.7462103523        8.0176781901  MEMB      31              0.0000000000
      4155        37  POPS      C210            0.6237278161       31.8937331794        6.6958922099  MEMB      31              0.0000000000
      4156        37  POPS      H101            0.7008371651       32.9915859349        6.6538913674  MEMB      31              0.0000000000
      4157        37  POPS      C211           -0.4671546388       31.2941876005        5.8532531744  MEMB      31              0.0000000000
      4158        37  POPS      H11R           -1.0761050791       32.1203458127        5.4292740123  MEMB      31              0.0000000000
      4159        37  POPS      H11S           -1.1561563459       30.6687642988        6.4653494918  MEMB      31              0.0000000000
      4160        37  POPS      C212            0.0647931509       30.4447038293        4.6833552844  MEMB      31              0.0000000000
      4161        37  POPS      H12R            0.4730222604       29.4809226474        5.0589664324  MEMB      31              0.0000000000
      4162        37  POPS      H12S            0.8967301002       30.9757098923        4.1761700639  MEMB      31              0.0000000000
      4163        37  POPS      C213           -1.0352912304       30.1485605086        3.6617535120  MEMB      31              0.0000000000
      4164        37  POPS      H13R           -1.4640907554       31.1045649433        3.2875757773  MEMB      31              0.0000000000
      4165        37  POPS      H13S           -1.8397896550       29.5981863210        4.1970357668  MEMB      31              0.0000000000
      4166        37  POPS      C214           -0.5745274671       29.3213210107        2.4558831289  MEMB      31              0.0000000000
      4167        37  POPS      H14R            0.4795015018       29.0070371354        2.6034526708  MEMB      31              0.0000000000
      4168        37  POPS      H14S           -0.5933112407       29.9810763659        1.5603750367  MEMB      31              0.0000000000
      4169        37  POPS      C215           -1.4675700679       28.0944589557        2.2039277278  MEMB      31              0.0000000000
      4170        37  POPS      H15R           -1.3113277269       27.7148529357        1.1731693397  MEMB      31              0.0000000000
      4171        37  POPS      H15S           -2.5323141691       28.4162727458        2.2712020972  MEMB      31              0.0000000000
      4172        37  POPS      C216           -1.2234455855       26.9456191919        3.1967266533  MEMB      31              0.0000000000
      4173        37  POPS      H16R           -2.0278155904       26.1863743189        3.0769337884  MEMB      31              0.0000000000
      4174        37  POPS      H16S           -1.2997394681       27.3543406044        4.2293850633  MEMB      31              0.0000000000
      4175        37  POPS      C217            0.1306082440       26.2337875570        3.0342377758  MEMB      31              0.0000000000
      4176        37  POPS      H17R            0.3146764352       25.6419076692        3.9601543007  MEMB      31              0.0000000000
      4177        37  POPS      H17S            0.9507566684       26.9808959385        2.9642885118  MEMB      31              0.0000000000
      4178        37  POPS      C218            0.2061086543       25.2776021394        1.8393328065  MEMB      31              0.0000000000
      4179        37  POPS      H18R            0.0726096143       25.8236329312        0.8837163611  MEMB      31              0.0000000000
      4180        37  POPS      H18S           -0.5897594368       24.5068362163        1.9107600478  MEMB      31              0.0000000000
      4181        37  POPS      H18T            1.1928654523       24.7671378944        1.8156055249  MEMB      31              0.0000000000
      4182        37  POPS      C33             4.4458495401       28.6634057918       14.3344831703  MEMB      31              0.0000000000
      4183        37  POPS      H3X             5.5226005869       28.5575333551       14.0669078490  MEMB      31              0.0000000000
      4184        37  POPS      H3Y             4.0661184864       29.5635535213       13.8026873405  MEMB      31              0.0000000000
      4185        37  POPS      C34             3.6910775920       27.4182324227       13.8462490483  MEMB      31              0.0000000000
      4186        37  POPS      H4X             2.5973269121       27.6195709453       13.8790620177  MEMB      31              0.0000000000
      4187        37  POPS      H4Y             3.8713473972       26.5791251516       14.5583159780  MEMB      31              0.0000000000
      4188        37  POPS      C35             4.0926657593       26.9424596522       12.4458640598  MEMB      31              0.0000000000
      4189        37  POPS      H5X             5.1718586612       26.6705495692       12.4504832705  MEMB      31              0.0000000000
      4190        37  POPS      H5Y             3.9551080889       27.7723788578       11.7210989478  MEMB      31              0.0000000000
      4191        37  POPS      C36             3.2720304466       25.7161480538       12.0087206290  MEMB      31              0.0000000000
      4192        37  POPS      H6X             2.1988733164       25.9984083066       11.9379645807  MEMB      31              0.0000000000
      4193        37  POPS      H6Y             3.3582410521       24.9469381736       12.8103435721  MEMB      31              0.0000000000
      4194        37  POPS      C37             3.7399269670       25.0938816495       10.6798772163  MEMB      31              0.0000000000
      4195        37  POPS      H7X             3.2201151248       24.1222049561       10.5257305978  MEMB      31              0.0000000000
      4196        37  POPS      H7Y             4.8258114203       24.8880025109       10.7643694723  MEMB      31              0.0000000000
      4197        37  POPS      C38             3.4827665988       25.9913746293        9.4633171394  MEMB      31              0.0000000000
      4198        37  POPS      H8X             3.9322959853       26.9916510015        9.6557095863  MEMB      31              0.0000000000
      4199        37  POPS      H8Y             2.3835020933       26.1216607813        9.3512292645  MEMB      31              0.0000000000
      4200        37  POPS      C39             4.0593161833       25.4693911232        8.1368797332  MEMB      31              0.0000000000
      4201        37  POPS      H9X             3.5612258969       24.5164949340        7.8561989499  MEMB      31              0.0000000000
      4202        37  POPS      H9Y             5.1447183498       25.2629245567        8.2716224384  MEMB      31              0.0000000000
      4203        37  POPS      C310            3.8923893184       26.5068822690        7.0123720517  MEMB      31              0.0000000000
      4204        37  POPS      H10X            4.4116603702       27.4388376771        7.3388765670  MEMB      31              0.0000000000
      4205        37  POPS      H10Y            2.8158195703       26.7568181645        6.8839913893  MEMB      31              0.0000000000
      4206        37  POPS      C311            4.4838990776       26.0754022935        5.6612388570  MEMB      31              0.0000000000
      4207        37  POPS      H11X            5.4475111206       25.5459003388        5.8291429323  MEMB      31              0.0000000000
      4208        37  POPS      H11Y            4.7024074232       26.9976834066        5.0758942270  MEMB      31              0.0000000000
      4209        37  POPS      C312            3.5333365442       25.1998737238        4.8268461074  MEMB      31              0.0000000000
      4210        37  POPS      H12X            2.6485491540       25.8084953979        4.5351482294  MEMB      31              0.0000000000
      4211        37  POPS      H12Y            3.1700217811       24.3602137587        5.4615041693  MEMB      31              0.0000000000
      4212        37  POPS      C313            4.1781167089       24.5983019586        3.5633849842  MEMB      31              0.0000000000
      4213        37  POPS      H13X            3.4200850029       23.9640797550        3.0505546424  MEMB      31              0.0000000000
      4214        37  POPS      H13Y            5.0112994927       23.9304502687        3.8772816157  MEMB      31              0.0000000000
      4215        37  POPS      C314            4.7211231095       25.6369602816        2.5658140333  MEMB      31              0.0000000000
      4216        37  POPS      H14X            5.4057459207       26.3352962992        3.0955308883  MEMB      31              0.0000000000
      4217        37  POPS      H14Y            3.8741710826       26.2341624016        2.1600782077  MEMB      31              0.0000000000
      4218        37  POPS      C315            5.5060191630       25.0133203828        1.3993066579  MEMB      31              0.0000000000
      4219        37  POPS      H15X            6.3472704789       24.4128343768        1.8145550542  MEMB      31              0.0000000000
      4220        37  POPS      H15Y            5.9555864740       25.8351779323        0.7965192077  MEMB      31              0.0000000000
      4221        37  POPS      C316            4.6645702175       24.1323606426        0.4719093768  MEMB      31              0.0000000000
      4222        37  POPS      H16X            4.2232158525       23.2793196527        1.0291490419  MEMB      31              0.0000000000
      4223        37  POPS      H16Y            5.2899509478       23.7261128706       -0.3514644763  MEMB      31              0.0000000000
      4224        37  POPS      H16Z            3.8384411148       24.7262765634        0.0247647416  MEMB      31              0.0000000000
      4225        38  POPC      N              17.1718551046       17.7803993338       20.4270878635  MEMB      32              0.0000000000
      4226        38  POPC      C12            18.5470805874       17.7199860051       19.7631950808  MEMB      32              0.0000000000
      4227        38  POPC      H12A           18.6981279617       16.7031277544       19.4025273060  MEMB      32              0.0000000000
      4228        38  POPC      H12B           19.2811223652       17.9085294372       20.5315365170  MEMB      32              0.0000000000
      4229        38  POPC      C13            16.1366862271       17.7697299998       19.3322114286  MEMB      32              0.0000000000
      4230        38  POPC      H13A           15.1311068390       17.8852442467       19.7064849643  MEMB      32              0.0000000000
      4231        38  POPC      H13B           16.3154312461       18.6599270096       18.7048177416  MEMB      32              0.0000000000
      4232        38  POPC      H13C           16.2716559583       16.8982637053       18.7045847184  MEMB      32              0.0000000000
      4233        38  POPC      C14            17.0187258107       16.6273288847       21.3658413594  MEMB      32              0.0000000000
      4234        38  POPC      H14A           17.0907527773       15.6925604764       20.8066637645  MEMB      32              0.0000000000
      4235        38  POPC      H14B           17.7941676637       16.6404318804       22.1304884459  MEMB      32              0.0000000000
      4236        38  POPC      H14C           16.0777744388       16.6568048526       21.9074599550  MEMB      32              0.0000000000
      4237        38  POPC      C15            16.9960505045       19.0469996681       21.1726577056  MEMB      32              0.0000000000
      4238        38  POPC      H15A           16.0662531108       19.0584590984       21.7327783995  MEMB      32              0.0000000000
      4239        38  POPC      H15B           16.9323724045       19.8695473780       20.4602371505  MEMB      32              0.0000000000
      4240        38  POPC      H15C           17.8139464710       19.2472753087       21.8455216011  MEMB      32              0.0000000000
      4241        38  POPC      C11            18.8726253140       18.6903459730       18.5861345088  MEMB      32              0.0000000000
      4242        38  POPC      H11A           18.1816360093       18.5071615769       17.7263977237  MEMB      32              0.0000000000
      4243        38  POPC      H11B           19.8875384217       18.4322899778       18.2071180313  MEMB      32              0.0000000000
      4244        38  POPC      P              17.9148509584       21.1394163071       18.4290624282  MEMB      32              0.0000000000
      4245        38  POPC      O13            18.3264440550       22.4561312263       18.9822739045  MEMB      32              0.0000000000
      4246        38  POPC      O14            16.5289550340       20.6986857723       18.7053310954  MEMB      32              0.0000000000
      4247        38  POPC      O12            18.9028463973       20.0506893904       19.0153075982  MEMB      32              0.0000000000
      4248        38  POPC      O11            18.3205073196       21.0615302030       16.8779298808  MEMB      32              0.0000000000
      4249        38  POPC      C1             19.5565744910       21.6954343417       16.4841584220  MEMB      32              0.0000000000
      4250        38  POPC      HA             20.3506787915       21.5423903138       17.2550010095  MEMB      32              0.0000000000
      4251        38  POPC      HB             19.3662315558       22.7891251203       16.3896976811  MEMB      32              0.0000000000
      4252        38  POPC      C2             20.2455881032       21.2606688658       15.1230172018  MEMB      32              0.0000000000
      4253        38  POPC      HS             21.0957418285       21.9723834205       14.9933210141  MEMB      32              0.0000000000
      4254        38  POPC      O21            19.3313686975       21.3406083798       13.9966707397  MEMB      32              0.0000000000
      4255        38  POPC      C21            19.9441998277       21.4689895951       12.8109503838  MEMB      32              0.0000000000
      4256        38  POPC      O22            21.1493917148       21.4257701259       12.6369578541  MEMB      32              0.0000000000
      4257        38  POPC      C22            18.9401127255       21.7737114432       11.7024198706  MEMB      32              0.0000000000
      4258        38  POPC      H2R            17.9372226727       21.9402061153       12.1447946326  MEMB      32              0.0000000000
      4259        38  POPC      H2S            18.9057256190       20.8995181146       11.0242263354  MEMB      32              0.0000000000
      4260        38  POPC      C3             20.8791847748       19.8198966677       15.1928997952  MEMB      32              0.0000000000
      4261        38  POPC      HX             21.4144594400       19.7375033343       16.1624516386  MEMB      32              0.0000000000
      4262        38  POPC      HY             21.6585918812       19.8013350705       14.3925444554  MEMB      32              0.0000000000
      4263        38  POPC      O31            19.9371972900       18.7289302843       15.0744660606  MEMB      32              0.0000000000
      4264        38  POPC      C31            20.3903726500       17.6586645196       14.4082139297  MEMB      32              0.0000000000
      4265        38  POPC      O32            21.5394775519       17.4901504332       14.0388136741  MEMB      32              0.0000000000
      4266        38  POPC      C32            19.2118603744       16.7196849249       14.1511462239  MEMB      32              0.0000000000
      4267        38  POPC      H2X            18.9744648952       16.2259751316       15.1187169091  MEMB      32              0.0000000000
      4268        38  POPC      H2Y            19.5490122680       15.9517740352       13.4291025949  MEMB      32              0.0000000000
      4269        38  POPC      C23            19.4150974717       23.0266739275       10.9367180282  MEMB      32              0.0000000000
      4270        38  POPC      H3R            20.4563701426       22.8809622662       10.5743228832  MEMB      32              0.0000000000
      4271        38  POPC      H3S            19.4496987353       23.8557761213       11.6716667751  MEMB      32              0.0000000000
      4272        38  POPC      C24            18.5053963427       23.4681281785        9.7810407114  MEMB      32              0.0000000000
      4273        38  POPC      H4R            18.6927730307       24.5486003413        9.5792465102  MEMB      32              0.0000000000
      4274        38  POPC      H4S            17.4437169766       23.3638821183       10.0959163816  MEMB      32              0.0000000000
      4275        38  POPC      C25            18.7439239800       22.7007821278        8.4721173207  MEMB      32              0.0000000000
      4276        38  POPC      H5R            17.9700662780       23.0054076434        7.7296030904  MEMB      32              0.0000000000
      4277        38  POPC      H5S            18.6051925935       21.6167451458        8.6668621280  MEMB      32              0.0000000000
      4278        38  POPC      C26            20.1277634422       22.9672674559        7.8482968715  MEMB      32              0.0000000000
      4279        38  POPC      H6R            20.9487517771       22.7564502748        8.5655852599  MEMB      32              0.0000000000
      4280        38  POPC      H6S            20.1732614313       24.0531888481        7.5991619958  MEMB      32              0.0000000000
      4281        38  POPC      C27            20.3838095124       22.1611902168        6.5643324312  MEMB      32              0.0000000000
      4282        38  POPC      H7R            21.0531525289       22.7611397242        5.9042453112  MEMB      32              0.0000000000
      4283        38  POPC      H7S            19.4289775853       22.0228373359        6.0159758408  MEMB      32              0.0000000000
      4284        38  POPC      C28            21.0779429637       20.7988858951        6.7841214047  MEMB      32              0.0000000000
      4285        38  POPC      H8R            22.0809213583       20.9889623021        7.2269856661  MEMB      32              0.0000000000
      4286        38  POPC      H8S            21.2544819468       20.3723812237        5.7705559528  MEMB      32              0.0000000000
      4287        38  POPC      C29            20.3231583643       19.8250965898        7.6576300754  MEMB      32              0.0000000000
      4288        38  POPC      H91            20.3950581949       20.0154541035        8.7420221494  MEMB      32              0.0000000000
      4289        38  POPC      C210           19.5825920188       18.7901804625        7.2197938466  MEMB      32              0.0000000000
      4290        38  POPC      H101           19.0587434495       18.1489588990        7.9453208282  MEMB      32              0.0000000000
      4291        38  POPC      C211           19.3797986084       18.4259070346        5.7734121167  MEMB      32              0.0000000000
      4292        38  POPC      H11R           20.3571243717       18.3653836725        5.2439321256  MEMB      32              0.0000000000
      4293        38  POPC      H11S           18.7857944043       19.2145611427        5.2598129658  MEMB      32              0.0000000000
      4294        38  POPC      C212           18.6600878615       17.0783875214        5.5751284036  MEMB      32              0.0000000000
      4295        38  POPC      H12R           19.2023048096       16.2604682615        6.0937658660  MEMB      32              0.0000000000
      4296        38  POPC      H12S           18.7080058003       16.8456843494        4.4891190264  MEMB      32              0.0000000000
      4297        38  POPC      C213           17.1879550201       17.0946807730        6.0200394339  MEMB      32              0.0000000000
      4298        38  POPC      H13R           16.7122259978       18.0561389990        5.7317260236  MEMB      32              0.0000000000
      4299        38  POPC      H13S           17.1572273376       17.0340240033        7.1312548972  MEMB      32              0.0000000000
      4300        38  POPC      C214           16.3543741376       15.9440364992        5.4332131627  MEMB      32              0.0000000000
      4301        38  POPC      H14R           15.5755991398       15.6693379969        6.1811495348  MEMB      32              0.0000000000
      4302        38  POPC      H14S           16.9977014211       15.0494016573        5.2861596433  MEMB      32              0.0000000000
      4303        38  POPC      C215           15.6265409333       16.2954443897        4.1221185805  MEMB      32              0.0000000000
      4304        38  POPC      H15R           14.8467262615       17.0635716357        4.3296809699  MEMB      32              0.0000000000
      4305        38  POPC      H15S           15.1064263195       15.3810826044        3.7556926510  MEMB      32              0.0000000000
      4306        38  POPC      C216           16.5363551918       16.8171864921        2.9992722021  MEMB      32              0.0000000000
      4307        38  POPC      H16R           17.3923754135       16.1165564242        2.8678744917  MEMB      32              0.0000000000
      4308        38  POPC      H16S           16.9422453207       17.8144484853        3.2817055309  MEMB      32              0.0000000000
      4309        38  POPC      C217           15.7989717077       16.9294911624        1.6614441320  MEMB      32              0.0000000000
      4310        38  POPC      H17R           14.8796468729       17.5423964508        1.8044088631  MEMB      32              0.0000000000
      4311        38  POPC      H17S           15.4809771528       15.9041675805        1.3663443837  MEMB      32              0.0000000000
      4312        38  POPC      C218           16.6413578290       17.5371090274        0.5374859995  MEMB      32              0.0000000000
      4313        38  POPC      H18R           16.0779820592       17.5263819813       -0.4210182431  MEMB      32              0.0000000000
      4314        38  POPC      H18S           17.5795796584       16.9579227622        0.3994025585  MEMB      32              0.0000000000
      4315        38  POPC      H18T           16.9111248298       18.5870800753        0.7814713000  MEMB      32              0.0000000000
      4316        38  POPC      C33            17.9458825066       17.4573348981       13.6329413561  MEMB      32              0.0000000000
      4317        38  POPC      H3X            17.6610944719       18.2703524004       14.3388864609  MEMB      32              0.0000000000
      4318        38  POPC      H3Y            17.1012671617       16.7304371746       13.6169904465  MEMB      32              0.0000000000
      4319        38  POPC      C34            18.1112796797       18.0442264300       12.2228676987  MEMB      32              0.0000000000
      4320        38  POPC      H4X            18.3983280192       17.2297738328       11.5247145635  MEMB      32              0.0000000000
      4321        38  POPC      H4Y            18.9452174826       18.7797542243       12.2215876074  MEMB      32              0.0000000000
      4322        38  POPC      C35            16.8401952500       18.7328516358       11.6919370061  MEMB      32              0.0000000000
      4323        38  POPC      H5X            16.7472604781       19.7286853512       12.1806825509  MEMB      32              0.0000000000
      4324        38  POPC      H5Y            15.9387388595       18.1410167195       11.9743676890  MEMB      32              0.0000000000
      4325        38  POPC      C36            16.8739245475       18.8883770232       10.1625521157  MEMB      32              0.0000000000
      4326        38  POPC      H6X            16.6599261991       17.9019837210        9.6938324094  MEMB      32              0.0000000000
      4327        38  POPC      H6Y            17.9024275620       19.1874318814        9.8578400184  MEMB      32              0.0000000000
      4328        38  POPC      C37            15.8966328732       19.9397882043        9.6162102469  MEMB      32              0.0000000000
      4329        38  POPC      H7X            16.2021905823       20.9338764192       10.0144561085  MEMB      32              0.0000000000
      4330        38  POPC      H7Y            14.8679067078       19.7304420505        9.9805720036  MEMB      32              0.0000000000
      4331        38  POPC      C38            15.8860452248       20.0026756162        8.0764479110  MEMB      32              0.0000000000
      4332        38  POPC      H8X            15.3930289919       19.0930652041        7.6699320811  MEMB      32              0.0000000000
      4333        38  POPC      H8Y            16.9409864379       20.0048374899        7.7236575386  MEMB      32              0.0000000000
      4334        38  POPC      C39            15.1810249230       21.2639444700        7.5472782519  MEMB      32              0.0000000000
      4335        38  POPC      H9X            15.6891313916       22.1508179476        7.9901417953  MEMB      32              0.0000000000
      4336        38  POPC      H9Y            14.1299865369       21.2549966815        7.9034795243  MEMB      32              0.0000000000
      4337        38  POPC      C310           15.1606128239       21.4326238066        6.0171379079  MEMB      32              0.0000000000
      4338        38  POPC      H10X           14.8175285924       22.4691653927        5.7937543251  MEMB      32              0.0000000000
      4339        38  POPC      H10Y           14.4210093070       20.7305365767        5.5707174748  MEMB      32              0.0000000000
      4340        38  POPC      C311           16.5230872801       21.2078686170        5.3463306181  MEMB      32              0.0000000000
      4341        38  POPC      H11X           16.6537626831       20.1195817255        5.1637897018  MEMB      32              0.0000000000
      4342        38  POPC      H11Y           17.3327888633       21.5267497420        6.0378198950  MEMB      32              0.0000000000
      4343        38  POPC      C312           16.6992369461       21.9616627000        4.0180496201  MEMB      32              0.0000000000
      4344        38  POPC      H12X           16.8024515639       23.0466752820        4.2387401185  MEMB      32              0.0000000000
      4345        38  POPC      H12Y           15.7932117691       21.8212913465        3.3872134670  MEMB      32              0.0000000000
      4346        38  POPC      C313           17.9272658908       21.4618030772        3.2391263269  MEMB      32              0.0000000000
      4347        38  POPC      H13X           17.7330849795       20.4044374659        2.9453814216  MEMB      32              0.0000000000
      4348        38  POPC      H13Y           18.8142831550       21.4555883040        3.9091149258  MEMB      32              0.0000000000
      4349        38  POPC      C314           18.2712952557       22.2664820203        1.9733598452  MEMB      32              0.0000000000
      4350        38  POPC      H14X           17.3700490877       22.4014052704        1.3380743724  MEMB      32              0.0000000000
      4351        38  POPC      H14Y           18.9956381111       21.6528068851        1.3865544753  MEMB      32              0.0000000000
      4352        38  POPC      C315           18.9413281719       23.6225027284        2.2526751842  MEMB      32              0.0000000000
      4353        38  POPC      H15X           19.7637788181       23.7650336672        1.5134378797  MEMB      32              0.0000000000
      4354        38  POPC      H15Y           19.4126126740       23.6033333389        3.2612742394  MEMB      32              0.0000000000
      4355        38  POPC      C316           18.0064611760       24.8233539838        2.1379481339  MEMB      32              0.0000000000
      4356        38  POPC      H16X           18.5524573730       25.7659914893        2.3616066903  MEMB      32              0.0000000000
      4357        38  POPC      H16Y           17.1573355143       24.7311885835        2.8482726899  MEMB      32              0.0000000000
      4358        38  POPC      H16Z           17.5900819912       24.8925504096        1.1096380654  MEMB      32              0.0000000000
      4359        39  POPC      N             -17.0578763621       18.1941268421       18.4596250603  MEMB      33              0.0000000000
      4360        39  POPC      C12           -17.3765203703       17.0993215626       19.4663761702  MEMB      33              0.0000000000
      4361        39  POPC      H12A          -16.4333727106       16.7138094766       19.8404349184  MEMB      33              0.0000000000
      4362        39  POPC      H12B          -17.8431253083       16.2690198430       18.9497976207  MEMB      33              0.0000000000
      4363        39  POPC      C13           -18.3076667640       18.5041815371       17.7057806345  MEMB      33              0.0000000000
      4364        39  POPC      H13A          -18.6878104553       17.6523275044       17.1623747762  MEMB      33              0.0000000000
      4365        39  POPC      H13B          -19.0810317610       18.7789888182       18.4294938689  MEMB      33              0.0000000000
      4366        39  POPC      H13C          -18.1842767707       19.3645292290       17.0617615218  MEMB      33              0.0000000000
      4367        39  POPC      C14           -16.6489212248       19.4451115837       19.1713515221  MEMB      33              0.0000000000
      4368        39  POPC      H14A          -15.6980756028       19.3516902088       19.6812228740  MEMB      33              0.0000000000
      4369        39  POPC      H14B          -16.5663998468       20.2926694321       18.4842801379  MEMB      33              0.0000000000
      4370        39  POPC      H14C          -17.4218781292       19.7015691682       19.8890651231  MEMB      33              0.0000000000
      4371        39  POPC      C15           -15.9643109485       17.7572438096       17.5342496093  MEMB      33              0.0000000000
      4372        39  POPC      H15A          -15.8368734715       18.4641669992       16.7271312606  MEMB      33              0.0000000000
      4373        39  POPC      H15B          -16.1673929405       16.7838694473       17.1044866849  MEMB      33              0.0000000000
      4374        39  POPC      H15C          -15.0211525791       17.6820845047       18.0673478064  MEMB      33              0.0000000000
      4375        39  POPC      C11           -18.3139863628       17.4383065470       20.6575613714  MEMB      33              0.0000000000
      4376        39  POPC      H11A          -17.9065091034       18.3148447334       21.2073468310  MEMB      33              0.0000000000
      4377        39  POPC      H11B          -18.2921546838       16.6000701494       21.3893509226  MEMB      33              0.0000000000
      4378        39  POPC      P             -20.7406486008       16.6384012611       19.8951767091  MEMB      33              0.0000000000
      4379        39  POPC      O13           -22.1001610166       17.2342461245       19.9165316789  MEMB      33              0.0000000000
      4380        39  POPC      O14           -20.4970915022       15.3897602829       20.6646339136  MEMB      33              0.0000000000
      4381        39  POPC      O12           -19.6468881269       17.7324684183       20.2492252595  MEMB      33              0.0000000000
      4382        39  POPC      O11           -20.3087206724       16.3653175779       18.4167157964  MEMB      33              0.0000000000
      4383        39  POPC      C1            -21.1816588508       16.6037609183       17.3201771155  MEMB      33              0.0000000000
      4384        39  POPC      HA            -20.7355738983       17.3686721046       16.6450166253  MEMB      33              0.0000000000
      4385        39  POPC      HB            -22.1881207097       16.9912843431       17.6106783382  MEMB      33              0.0000000000
      4386        39  POPC      C2            -21.3965114210       15.3035394699       16.5231994323  MEMB      33              0.0000000000
      4387        39  POPC      HS            -21.5907284076       14.4647207060       17.2208986669  MEMB      33              0.0000000000
      4388        39  POPC      O21           -20.2351499207       15.0852840296       15.7049371165  MEMB      33              0.0000000000
      4389        39  POPC      C21           -19.2699778115       14.4131774206       16.2926877448  MEMB      33              0.0000000000
      4390        39  POPC      O22           -19.3463081952       13.8011303600       17.3428180012  MEMB      33              0.0000000000
      4391        39  POPC      C22           -17.9972415304       14.5222614231       15.4560218136  MEMB      33              0.0000000000
      4392        39  POPC      H2R           -17.1675026160       14.2467292106       16.1387953058  MEMB      33              0.0000000000
      4393        39  POPC      H2S           -17.8612060612       15.5735112683       15.1265851630  MEMB      33              0.0000000000
      4394        39  POPC      C3            -22.6539779515       15.4572765259       15.6442219566  MEMB      33              0.0000000000
      4395        39  POPC      HX            -23.5405482959       15.4877865498       16.3147433875  MEMB      33              0.0000000000
      4396        39  POPC      HY            -22.7823786042       14.5776476857       14.9691088718  MEMB      33              0.0000000000
      4397        39  POPC      O31           -22.5547271378       16.7167915615       14.9629318164  MEMB      33              0.0000000000
      4398        39  POPC      C31           -21.8564683528       16.6238317941       13.8337681487  MEMB      33              0.0000000000
      4399        39  POPC      O32           -21.6608968836       15.6012616318       13.2050880151  MEMB      33              0.0000000000
      4400        39  POPC      C32           -21.3460073306       17.9936847950       13.4440439560  MEMB      33              0.0000000000
      4401        39  POPC      H2X           -21.4049496869       18.6929704514       14.3009890953  MEMB      33              0.0000000000
      4402        39  POPC      H2Y           -21.9997730776       18.3698642208       12.6337637217  MEMB      33              0.0000000000
      4403        39  POPC      C23           -17.9958221864       13.5721988201       14.2340605581  MEMB      33              0.0000000000
      4404        39  POPC      H3R           -18.3246314743       12.5454453401       14.5117073887  MEMB      33              0.0000000000
      4405        39  POPC      H3S           -16.9538155413       13.4822723362       13.8546489895  MEMB      33              0.0000000000
      4406        39  POPC      C24           -18.8408189802       14.1045418654       13.0765789815  MEMB      33              0.0000000000
      4407        39  POPC      H4R           -18.6522994704       15.1936897226       12.9475829868  MEMB      33              0.0000000000
      4408        39  POPC      H4S           -19.9174027937       13.9757556625       13.3224150872  MEMB      33              0.0000000000
      4409        39  POPC      C25           -18.5561512952       13.4098290315       11.7424892548  MEMB      33              0.0000000000
      4410        39  POPC      H5R           -18.7810971776       12.3241289479       11.8385690300  MEMB      33              0.0000000000
      4411        39  POPC      H5S           -17.4793870307       13.5153306655       11.4806183196  MEMB      33              0.0000000000
      4412        39  POPC      C26           -19.4078847406       14.0043402277       10.6157732373  MEMB      33              0.0000000000
      4413        39  POPC      H6R           -19.1231182807       15.0667869863       10.4490552631  MEMB      33              0.0000000000
      4414        39  POPC      H6S           -20.4750798518       13.9980120565       10.9331651664  MEMB      33              0.0000000000
      4415        39  POPC      C27           -19.2550860442       13.2261675382        9.3032146721  MEMB      33              0.0000000000
      4416        39  POPC      H7R           -19.5076361524       12.1609276697        9.4900627750  MEMB      33              0.0000000000
      4417        39  POPC      H7S           -18.1871686532       13.2597320601        8.9992003754  MEMB      33              0.0000000000
      4418        39  POPC      C28           -20.1180074132       13.7834443519        8.1586343318  MEMB      33              0.0000000000
      4419        39  POPC      H8R           -19.8447310458       13.2492798799        7.2217034624  MEMB      33              0.0000000000
      4420        39  POPC      H8S           -19.8391531913       14.8506557424        8.0113370484  MEMB      33              0.0000000000
      4421        39  POPC      C29           -21.5929466262       13.6094900056        8.4316200050  MEMB      33              0.0000000000
      4422        39  POPC      H91           -21.9094265946       12.5726427765        8.6154391054  MEMB      33              0.0000000000
      4423        39  POPC      C210          -22.5141909321       14.5853481472        8.4991279524  MEMB      33              0.0000000000
      4424        39  POPC      H101          -23.5656762973       14.3169045894        8.6882614947  MEMB      33              0.0000000000
      4425        39  POPC      C211          -22.2367110214       16.0529708462        8.3101912713  MEMB      33              0.0000000000
      4426        39  POPC      H11R          -21.3280966521       16.3558649748        8.8788655395  MEMB      33              0.0000000000
      4427        39  POPC      H11S          -23.0773490375       16.6536516313        8.7074262733  MEMB      33              0.0000000000
      4428        39  POPC      C212          -22.0371120181       16.4090390922        6.8297745865  MEMB      33              0.0000000000
      4429        39  POPC      H12R          -22.9539816700       16.1827125174        6.2404573492  MEMB      33              0.0000000000
      4430        39  POPC      H12S          -21.2238786134       15.7651563005        6.4205864317  MEMB      33              0.0000000000
      4431        39  POPC      C213          -21.6318184130       17.8730286020        6.6065690552  MEMB      33              0.0000000000
      4432        39  POPC      H13R          -21.1519996193       18.2800729398        7.5258947164  MEMB      33              0.0000000000
      4433        39  POPC      H13S          -22.5361686008       18.4823977062        6.3881294791  MEMB      33              0.0000000000
      4434        39  POPC      C214          -20.6288591563       17.9647239849        5.4534342604  MEMB      33              0.0000000000
      4435        39  POPC      H14R          -21.0395105097       17.4216306115        4.5810594905  MEMB      33              0.0000000000
      4436        39  POPC      H14S          -19.6932684595       17.4454930508        5.7660508949  MEMB      33              0.0000000000
      4437        39  POPC      C215          -20.2874064432       19.3846792388        5.0088111230  MEMB      33              0.0000000000
      4438        39  POPC      H15R          -19.9323159760       19.9455693099        5.9030609850  MEMB      33              0.0000000000
      4439        39  POPC      H15S          -21.1937211550       19.8918447756        4.6212775200  MEMB      33              0.0000000000
      4440        39  POPC      C216          -19.1810468410       19.4061227534        3.9466202294  MEMB      33              0.0000000000
      4441        39  POPC      H16R          -18.4162020576       18.6556791037        4.2441572497  MEMB      33              0.0000000000
      4442        39  POPC      H16S          -18.6838682842       20.3984409857        3.9524076628  MEMB      33              0.0000000000
      4443        39  POPC      C217          -19.6261998704       19.1029934573        2.5092224337  MEMB      33              0.0000000000
      4444        39  POPC      H17R          -20.3399094148       18.2508377863        2.5072607830  MEMB      33              0.0000000000
      4445        39  POPC      H17S          -18.7219074319       18.7778984250        1.9428734106  MEMB      33              0.0000000000
      4446        39  POPC      C218          -20.2363710834       20.2953320242        1.7692773827  MEMB      33              0.0000000000
      4447        39  POPC      H18R          -21.1696878071       20.6270060271        2.2681251416  MEMB      33              0.0000000000
      4448        39  POPC      H18S          -20.4851040458       20.0115717776        0.7264614951  MEMB      33              0.0000000000
      4449        39  POPC      H18T          -19.5205534060       21.1458523544        1.7373616404  MEMB      33              0.0000000000
      4450        39  POPC      C33           -19.9025974470       17.8626592032       12.9340137284  MEMB      33              0.0000000000
      4451        39  POPC      H3X           -19.8621891195       17.0331119345       12.1859964035  MEMB      33              0.0000000000
      4452        39  POPC      H3Y           -19.2107170298       17.6072849122       13.7678983118  MEMB      33              0.0000000000
      4453        39  POPC      C34           -19.4514893044       19.1437929755       12.2412155263  MEMB      33              0.0000000000
      4454        39  POPC      H4X           -19.4690149384       19.9946326322       12.9595829828  MEMB      33              0.0000000000
      4455        39  POPC      H4Y           -20.1845651934       19.3640092674       11.4314499952  MEMB      33              0.0000000000
      4456        39  POPC      C35           -18.0659762741       19.0304545426       11.6090948608  MEMB      33              0.0000000000
      4457        39  POPC      H5X           -17.2921570070       18.9557749960       12.4059745199  MEMB      33              0.0000000000
      4458        39  POPC      H5Y           -17.8696293811       19.9633133735       11.0352056667  MEMB      33              0.0000000000
      4459        39  POPC      C36           -17.9131990445       17.8287643288       10.6650737082  MEMB      33              0.0000000000
      4460        39  POPC      H6X           -18.7973291830       17.7358064025        9.9956125484  MEMB      33              0.0000000000
      4461        39  POPC      H6Y           -17.8498147789       16.8998741302       11.2759866288  MEMB      33              0.0000000000
      4462        39  POPC      C37           -16.6469474911       17.9513497446        9.8159063656  MEMB      33              0.0000000000
      4463        39  POPC      H7X           -15.8744609218       18.4486653708       10.4452356454  MEMB      33              0.0000000000
      4464        39  POPC      H7Y           -16.8395616368       18.6291547710        8.9584091034  MEMB      33              0.0000000000
      4465        39  POPC      C38           -16.0863298971       16.6060991689        9.3318408475  MEMB      33              0.0000000000
      4466        39  POPC      H8X           -16.2081726525       15.8254649896       10.1145316632  MEMB      33              0.0000000000
      4467        39  POPC      H8Y           -14.9925121973       16.7447217695        9.1622497958  MEMB      33              0.0000000000
      4468        39  POPC      C39           -16.6805394393       16.1363471972        8.0040965501  MEMB      33              0.0000000000
      4469        39  POPC      H9X           -16.5293031145       16.9525722887        7.2650244810  MEMB      33              0.0000000000
      4470        39  POPC      H9Y           -17.7761106724       15.9705329623        8.1004892693  MEMB      33              0.0000000000
      4471        39  POPC      C310          -15.9920624354       14.8724948562        7.4695628226  MEMB      33              0.0000000000
      4472        39  POPC      H10X          -16.4603995139       13.9750978493        7.9251664271  MEMB      33              0.0000000000
      4473        39  POPC      H10Y          -14.9252591101       14.8895364613        7.7898815007  MEMB      33              0.0000000000
      4474        39  POPC      C311          -16.0120098013       14.7646206338        5.9370118698  MEMB      33              0.0000000000
      4475        39  POPC      H11X          -15.5850275269       13.7835688622        5.6342275481  MEMB      33              0.0000000000
      4476        39  POPC      H11Y          -15.3493199420       15.5630406451        5.5287579533  MEMB      33              0.0000000000
      4477        39  POPC      C312          -17.4018057541       14.9266698518        5.3096002973  MEMB      33              0.0000000000
      4478        39  POPC      H12X          -17.8616893779       15.8661894631        5.6916971584  MEMB      33              0.0000000000
      4479        39  POPC      H12Y          -18.0629779158       14.0858810477        5.6113531052  MEMB      33              0.0000000000
      4480        39  POPC      C313          -17.3354293220       15.0374546424        3.7816192540  MEMB      33              0.0000000000
      4481        39  POPC      H13X          -17.1299616720       14.0433319873        3.3279953697  MEMB      33              0.0000000000
      4482        39  POPC      H13Y          -16.4867617499       15.7108396400        3.5179288696  MEMB      33              0.0000000000
      4483        39  POPC      C314          -18.6025644225       15.6584113191        3.1859544683  MEMB      33              0.0000000000
      4484        39  POPC      H14X          -18.4045642981       15.9344871736        2.1272258106  MEMB      33              0.0000000000
      4485        39  POPC      H14Y          -18.8338570013       16.5993729390        3.7257856701  MEMB      33              0.0000000000
      4486        39  POPC      C315          -19.8225428486       14.7383847450        3.2283505103  MEMB      33              0.0000000000
      4487        39  POPC      H15X          -20.0708842418       14.4701334059        4.2802569072  MEMB      33              0.0000000000
      4488        39  POPC      H15Y          -19.5494877397       13.7988358713        2.6982895377  MEMB      33              0.0000000000
      4489        39  POPC      C316          -21.0461348093       15.3651448453        2.5583256156  MEMB      33              0.0000000000
      4490        39  POPC      H16X          -21.5884883960       16.0403866027        3.2476694667  MEMB      33              0.0000000000
      4491        39  POPC      H16Y          -21.7560464850       14.5853405804        2.2313552203  MEMB      33              0.0000000000
      4492        39  POPC      H16Z          -20.7439835191       15.9547524320        1.6683792924  MEMB      33              0.0000000000
      4493        40  POPC      N             -10.1888284918       24.2212153286       19.2864207088  MEMB      34              0.0000000000
      4494        40  POPC      C12           -10.4397666706       23.1354941664       18.2408642984  MEMB      34              0.0000000000
      4495        40  POPC      H12A           -9.4962735196       22.6516416680       18.0075949450  MEMB      34              0.0000000000
      4496        40  POPC      H12B          -10.7747343536       23.6133962951       17.3258738335  MEMB      34              0.0000000000
      4497        40  POPC      C13           -11.3509925350       25.1608122911       19.3209192079  MEMB      34              0.0000000000
      4498        40  POPC      H13A          -12.2506874900       24.6363795610       19.6599996391  MEMB      34              0.0000000000
      4499        40  POPC      H13B          -11.1638790511       25.9877475574       19.9834712746  MEMB      34              0.0000000000
      4500        40  POPC      H13C          -11.5874155581       25.5293459391       18.3338771488  MEMB      34              0.0000000000
      4501        40  POPC      C14           -10.0666801550       23.5852815058       20.6411804995  MEMB      34              0.0000000000
      4502        40  POPC      H14A          -10.9950453715       23.0679995667       20.8916809138  MEMB      34              0.0000000000
      4503        40  POPC      H14B           -9.2629633609       22.8619937291       20.6573912488  MEMB      34              0.0000000000
      4504        40  POPC      H14C           -9.8930390072       24.3162958002       21.4218456286  MEMB      34              0.0000000000
      4505        40  POPC      C15            -8.9315566983       24.9823430214       18.9835154598  MEMB      34              0.0000000000
      4506        40  POPC      H15A           -8.7409999976       25.7370837428       19.7340461419  MEMB      34              0.0000000000
      4507        40  POPC      H15B           -8.9377111129       25.4946052919       18.0231239762  MEMB      34              0.0000000000
      4508        40  POPC      H15C           -8.0478253071       24.3423665766       18.9628465170  MEMB      34              0.0000000000
      4509        40  POPC      C11           -11.5051465758       22.0450134462       18.5487977167  MEMB      34              0.0000000000
      4510        40  POPC      H11A          -11.2441895481       21.5036265638       19.4871861798  MEMB      34              0.0000000000
      4511        40  POPC      H11B          -11.4606418264       21.2876695234       17.7334817660  MEMB      34              0.0000000000
      4512        40  POPC      P             -13.8340453373       22.5044901305       19.7620032458  MEMB      34              0.0000000000
      4513        40  POPC      O13           -13.9400937270       23.8586021819       20.3590921997  MEMB      34              0.0000000000
      4514        40  POPC      O14           -13.4491113865       21.4304025522       20.7058497463  MEMB      34              0.0000000000
      4515        40  POPC      O12           -12.8138965707       22.6038423171       18.5579853503  MEMB      34              0.0000000000
      4516        40  POPC      O11           -15.1810329365       22.0947005922       19.0236971374  MEMB      34              0.0000000000
      4517        40  POPC      C1            -16.3827756170       22.8671590274       19.1547534961  MEMB      34              0.0000000000
      4518        40  POPC      HA            -16.2792462453       23.7418363939       19.8370909800  MEMB      34              0.0000000000
      4519        40  POPC      HB            -17.1617216703       22.2150843929       19.6100983847  MEMB      34              0.0000000000
      4520        40  POPC      C2            -16.9777488332       23.3812601432       17.7988508233  MEMB      34              0.0000000000
      4521        40  POPC      HS            -18.0481801458       23.0548204063       17.7739317551  MEMB      34              0.0000000000
      4522        40  POPC      O21           -16.2321503123       22.9000597261       16.6636994959  MEMB      34              0.0000000000
      4523        40  POPC      C21           -16.6231137573       21.7418441127       16.2140799386  MEMB      34              0.0000000000
      4524        40  POPC      O22           -17.6270841142       21.1349291799       16.5387222983  MEMB      34              0.0000000000
      4525        40  POPC      C22           -15.6678245247       21.2104997087       15.1519525878  MEMB      34              0.0000000000
      4526        40  POPC      H2R           -16.3059125129       20.6722269526       14.4203648251  MEMB      34              0.0000000000
      4527        40  POPC      H2S           -14.9792188759       20.4882681374       15.6344857482  MEMB      34              0.0000000000
      4528        40  POPC      C3            -17.0483230216       24.9338336314       17.7121027446  MEMB      34              0.0000000000
      4529        40  POPC      HX            -17.4208163242       25.3233162819       18.6824017154  MEMB      34              0.0000000000
      4530        40  POPC      HY            -17.8364664011       25.1330915108       16.9438221544  MEMB      34              0.0000000000
      4531        40  POPC      O31           -15.7706747150       25.5370918723       17.3912261884  MEMB      34              0.0000000000
      4532        40  POPC      C31           -15.8372662388       26.5331774625       16.5149224466  MEMB      34              0.0000000000
      4533        40  POPC      O32           -16.8613129255       27.0716730125       16.1309316581  MEMB      34              0.0000000000
      4534        40  POPC      C32           -14.4243376257       26.9582610437       16.1283621084  MEMB      34              0.0000000000
      4535        40  POPC      H2X           -13.6916964736       26.2500734120       16.5623752120  MEMB      34              0.0000000000
      4536        40  POPC      H2Y           -14.2559787733       27.9556127123       16.5865485386  MEMB      34              0.0000000000
      4537        40  POPC      C23           -14.8894384346       22.3324227410       14.4450478747  MEMB      34              0.0000000000
      4538        40  POPC      H3R           -14.0534393507       22.6618251698       15.1041850337  MEMB      34              0.0000000000
      4539        40  POPC      H3S           -15.5668892517       23.2040866220       14.2943167307  MEMB      34              0.0000000000
      4540        40  POPC      C24           -14.3665225925       21.9399694230       13.0613386781  MEMB      34              0.0000000000
      4541        40  POPC      H4R           -13.8834097394       20.9387402035       13.0979316790  MEMB      34              0.0000000000
      4542        40  POPC      H4S           -13.5865665512       22.6794768690       12.7689962207  MEMB      34              0.0000000000
      4543        40  POPC      C25           -15.4712944468       21.9685335209       11.9936258441  MEMB      34              0.0000000000
      4544        40  POPC      H5R           -16.0663999339       22.9032662218       12.1036986492  MEMB      34              0.0000000000
      4545        40  POPC      H5S           -16.1627090234       21.1133114600       12.1517141677  MEMB      34              0.0000000000
      4546        40  POPC      C26           -14.9113111654       21.9135772297       10.5681187115  MEMB      34              0.0000000000
      4547        40  POPC      H6R           -14.3130122464       20.9818685940       10.4722283531  MEMB      34              0.0000000000
      4548        40  POPC      H6S           -14.2270618194       22.7768778538       10.4046289689  MEMB      34              0.0000000000
      4549        40  POPC      C27           -16.0174223897       21.9552919796        9.4993822103  MEMB      34              0.0000000000
      4550        40  POPC      H7R           -16.5499295137       22.9288941342        9.5956044099  MEMB      34              0.0000000000
      4551        40  POPC      H7S           -16.7553514655       21.1501822210        9.7002868847  MEMB      34              0.0000000000
      4552        40  POPC      C28           -15.5135258110       21.8154065808        8.0501465993  MEMB      34              0.0000000000
      4553        40  POPC      H8R           -14.7588711690       22.6115072146        7.8693532083  MEMB      34              0.0000000000
      4554        40  POPC      H8S           -16.3640300881       22.0070356970        7.3594619436  MEMB      34              0.0000000000
      4555        40  POPC      C29           -14.8939811957       20.4644035130        7.8122435629  MEMB      34              0.0000000000
      4556        40  POPC      H91           -14.0148798853       20.2738483955        8.4407072188  MEMB      34              0.0000000000
      4557        40  POPC      C210          -15.2464173198       19.5153815409        6.9266731170  MEMB      34              0.0000000000
      4558        40  POPC      H101          -14.6802887147       18.5710471011        6.9208047759  MEMB      34              0.0000000000
      4559        40  POPC      C211          -16.3654069878       19.5520704252        5.9245516129  MEMB      34              0.0000000000
      4560        40  POPC      H11R          -17.0927476022       20.3635531095        6.1473285161  MEMB      34              0.0000000000
      4561        40  POPC      H11S          -16.9398954325       18.6009715983        5.9420859871  MEMB      34              0.0000000000
      4562        40  POPC      C212          -15.8017579300       19.7718135405        4.5104491108  MEMB      34              0.0000000000
      4563        40  POPC      H12R          -15.2266951403       20.7164340364        4.4842837741  MEMB      34              0.0000000000
      4564        40  POPC      H12S          -16.6522575182       19.9070047287        3.8164556759  MEMB      34              0.0000000000
      4565        40  POPC      C213          -14.9015790663       18.6537062302        3.9601912764  MEMB      34              0.0000000000
      4566        40  POPC      H13R          -15.4915789545       17.7186872569        3.8557961889  MEMB      34              0.0000000000
      4567        40  POPC      H13S          -14.0691117289       18.4570323023        4.6721820721  MEMB      34              0.0000000000
      4568        40  POPC      C214          -14.2871103347       19.0378415084        2.6041644455  MEMB      34              0.0000000000
      4569        40  POPC      H14R          -13.6351235771       18.2124323854        2.2431013604  MEMB      34              0.0000000000
      4570        40  POPC      H14S          -13.6355276402       19.9286852456        2.7598193056  MEMB      34              0.0000000000
      4571        40  POPC      C215          -15.3217315152       19.3745422302        1.5185273024  MEMB      34              0.0000000000
      4572        40  POPC      H15R          -16.0390634336       20.1380924688        1.8857824585  MEMB      34              0.0000000000
      4573        40  POPC      H15S          -15.9143940000       18.4697005039        1.2665895740  MEMB      34              0.0000000000
      4574        40  POPC      C216          -14.6668893314       19.9553567591        0.2604132816  MEMB      34              0.0000000000
      4575        40  POPC      H16R          -14.0127389965       19.1835143577       -0.1930741503  MEMB      34              0.0000000000
      4576        40  POPC      H16S          -14.0174543795       20.8118122037        0.5513129289  MEMB      34              0.0000000000
      4577        40  POPC      C217          -15.7000869485       20.4386089284       -0.7608874078  MEMB      34              0.0000000000
      4578        40  POPC      H17R          -16.4795716763       21.0399142627       -0.2375603656  MEMB      34              0.0000000000
      4579        40  POPC      H17S          -16.2014145968       19.5481696092       -1.1994517599  MEMB      34              0.0000000000
      4580        40  POPC      C218          -15.1022960485       21.2869944723       -1.8810067598  MEMB      34              0.0000000000
      4581        40  POPC      H18R          -15.8711866931       21.5059673308       -2.6525008259  MEMB      34              0.0000000000
      4582        40  POPC      H18S          -14.2501735249       20.7691808576       -2.3651493568  MEMB      34              0.0000000000
      4583        40  POPC      H18T          -14.7201476954       22.2498179840       -1.4850507355  MEMB      34              0.0000000000
      4584        40  POPC      C33           -14.2438359579       27.0464421660       14.6009198324  MEMB      34              0.0000000000
      4585        40  POPC      H3X           -13.2275865113       27.4462626494       14.3868737989  MEMB      34              0.0000000000
      4586        40  POPC      H3Y           -14.9845592672       27.7591081284       14.1719946268  MEMB      34              0.0000000000
      4587        40  POPC      C34           -14.3760996753       25.6782910167       13.9225154582  MEMB      34              0.0000000000
      4588        40  POPC      H4X           -15.3621940690       25.2342421592       14.1817309206  MEMB      34              0.0000000000
      4589        40  POPC      H4Y           -13.5783845489       25.0137080926       14.3222946212  MEMB      34              0.0000000000
      4590        40  POPC      C35           -14.2646345356       25.7650149199       12.3971793779  MEMB      34              0.0000000000
      4591        40  POPC      H5X           -13.8775000421       24.8058485326       11.9915313577  MEMB      34              0.0000000000
      4592        40  POPC      H5Y           -13.5263234354       26.5566760482       12.1398111857  MEMB      34              0.0000000000
      4593        40  POPC      C36           -15.6172488751       26.0649843332       11.7315596195  MEMB      34              0.0000000000
      4594        40  POPC      H6X           -16.1776177702       26.7766968310       12.3821081555  MEMB      34              0.0000000000
      4595        40  POPC      H6Y           -16.2217775814       25.1365466527       11.6572634588  MEMB      34              0.0000000000
      4596        40  POPC      C37           -15.4610279783       26.7117993839       10.3535984873  MEMB      34              0.0000000000
      4597        40  POPC      H7X           -14.8635253788       27.6278849637       10.5315736228  MEMB      34              0.0000000000
      4598        40  POPC      H7Y           -16.4475813984       27.0287098252        9.9523596739  MEMB      34              0.0000000000
      4599        40  POPC      C38           -14.7304106692       25.8529817470        9.3143645221  MEMB      34              0.0000000000
      4600        40  POPC      H8X           -15.4148357417       25.0633400408        8.9362837361  MEMB      34              0.0000000000
      4601        40  POPC      H8Y           -13.8584687650       25.3469000963        9.7856696218  MEMB      34              0.0000000000
      4602        40  POPC      C39           -14.1954223350       26.7207036846        8.1665866461  MEMB      34              0.0000000000
      4603        40  POPC      H9X           -13.5310582138       27.4897552695        8.6180812492  MEMB      34              0.0000000000
      4604        40  POPC      H9Y           -15.0349146953       27.2455791226        7.6614481534  MEMB      34              0.0000000000
      4605        40  POPC      C310          -13.3609659563       25.9539683963        7.1386184598  MEMB      34              0.0000000000
      4606        40  POPC      H10X          -12.6251921624       25.3157539229        7.6766045369  MEMB      34              0.0000000000
      4607        40  POPC      H10Y          -12.7846504393       26.6743588370        6.5129286533  MEMB      34              0.0000000000
      4608        40  POPC      C311          -14.2221471900       25.0909495257        6.2177982418  MEMB      34              0.0000000000
      4609        40  POPC      H11X          -14.8245533164       25.7485429388        5.5528335800  MEMB      34              0.0000000000
      4610        40  POPC      H11Y          -14.9387774088       24.5008164156        6.8308608324  MEMB      34              0.0000000000
      4611        40  POPC      C312          -13.3713325434       24.1236277530        5.3885893190  MEMB      34              0.0000000000
      4612        40  POPC      H12X          -12.6618021247       23.6044179866        6.0750206584  MEMB      34              0.0000000000
      4613        40  POPC      H12Y          -12.7716833213       24.6879128438        4.6427650969  MEMB      34              0.0000000000
      4614        40  POPC      C313          -14.2219517173       23.0487784381        4.7069290685  MEMB      34              0.0000000000
      4615        40  POPC      H13X          -14.8205316646       22.5429369624        5.4969450116  MEMB      34              0.0000000000
      4616        40  POPC      H13Y          -13.5561603220       22.2777963826        4.2578478318  MEMB      34              0.0000000000
      4617        40  POPC      C314          -15.1831946391       23.5863238692        3.6390532236  MEMB      34              0.0000000000
      4618        40  POPC      H14X          -15.1774756113       24.6972361632        3.6516149017  MEMB      34              0.0000000000
      4619        40  POPC      H14Y          -16.2204444245       23.2528620987        3.8727121439  MEMB      34              0.0000000000
      4620        40  POPC      C315          -14.8289072724       23.0997499673        2.2319632646  MEMB      34              0.0000000000
      4621        40  POPC      H15X          -15.0144738270       22.0076311246        2.1858603228  MEMB      34              0.0000000000
      4622        40  POPC      H15Y          -13.7415998459       23.2410500859        2.0527959360  MEMB      34              0.0000000000
      4623        40  POPC      C316          -15.6236609134       23.8084416065        1.1375975126  MEMB      34              0.0000000000
      4624        40  POPC      H16X          -16.7076130157       23.5898269518        1.2409564779  MEMB      34              0.0000000000
      4625        40  POPC      H16Y          -15.2931022370       23.4739021324        0.1337730659  MEMB      34              0.0000000000
      4626        40  POPC      H16Z          -15.4701718172       24.9073766186        1.1975268221  MEMB      34              0.0000000000
      4627        41  POPC      N             -22.4438691416       12.0262369702       18.7413662117  MEMB      35              0.0000000000
      4628        41  POPC      C12           -22.3297635607       10.6532754831       19.4172840861  MEMB      35              0.0000000000
      4629        41  POPC      H12A          -22.3126142265       10.8134829051       20.4924802806  MEMB      35              0.0000000000
      4630        41  POPC      H12B          -21.3890546061       10.1900851421       19.1701265532  MEMB      35              0.0000000000
      4631        41  POPC      C13           -23.7653391821       12.6410309691       19.1016809122  MEMB      35              0.0000000000
      4632        41  POPC      H13A          -23.7818567402       12.9189011496       20.1511676555  MEMB      35              0.0000000000
      4633        41  POPC      H13B          -24.0359120937       13.4727452231       18.4756042393  MEMB      35              0.0000000000
      4634        41  POPC      H13C          -24.5326437497       11.8683156602       19.0154742743  MEMB      35              0.0000000000
      4635        41  POPC      C14           -21.3656963826       12.9051765736       19.2889844824  MEMB      35              0.0000000000
      4636        41  POPC      H14A          -21.5174552920       13.9462535227       19.0064216148  MEMB      35              0.0000000000
      4637        41  POPC      H14B          -21.3416543099       12.9403700540       20.3783496378  MEMB      35              0.0000000000
      4638        41  POPC      H14C          -20.3810533276       12.6150515576       18.9332614276  MEMB      35              0.0000000000
      4639        41  POPC      C15           -22.3653651262       11.8663726269       17.2625329233  MEMB      35              0.0000000000
      4640        41  POPC      H15A          -21.3847000470       11.5190132003       16.9511280275  MEMB      35              0.0000000000
      4641        41  POPC      H15B          -22.5460876529       12.7964515174       16.7423765801  MEMB      35              0.0000000000
      4642        41  POPC      H15C          -23.1049307484       11.1375000099       16.9459373623  MEMB      35              0.0000000000
      4643        41  POPC      C11           -23.4518500084        9.6186278454       19.1890814557  MEMB      35              0.0000000000
      4644        41  POPC      H11A          -23.1414493631        8.6561717147       19.6675182358  MEMB      35              0.0000000000
      4645        41  POPC      H11B          -23.6398389210        9.4344148342       18.1068225678  MEMB      35              0.0000000000
      4646        41  POPC      P             -25.8768936076        9.2898028388       20.1742398873  MEMB      35              0.0000000000
      4647        41  POPC      O13           -26.7210938169       10.1312065526       21.0432751554  MEMB      35              0.0000000000
      4648        41  POPC      O14           -25.4885680996        7.9831336848       20.7457163341  MEMB      35              0.0000000000
      4649        41  POPC      O12           -24.6025540942       10.1298836705       19.8186559668  MEMB      35              0.0000000000
      4650        41  POPC      O11           -26.5529968891        9.1031702926       18.7496644540  MEMB      35              0.0000000000
      4651        41  POPC      C1            -26.7363608815       10.2593352611       17.9178100063  MEMB      35              0.0000000000
      4652        41  POPC      HA            -25.8391045782       10.9198960572       17.9287653186  MEMB      35              0.0000000000
      4653        41  POPC      HB            -27.6077772961       10.8461698147       18.2924205987  MEMB      35              0.0000000000
      4654        41  POPC      C2            -26.9689591516        9.8977617083       16.4178015650  MEMB      35              0.0000000000
      4655        41  POPC      HS            -27.8974025608        9.2831735239       16.3560559780  MEMB      35              0.0000000000
      4656        41  POPC      O21           -25.8355111097        9.2010637991       15.8837515860  MEMB      35              0.0000000000
      4657        41  POPC      C21           -25.8940161664        7.8864224942       15.9114881675  MEMB      35              0.0000000000
      4658        41  POPC      O22           -26.7024585517        7.1861918929       16.4958215229  MEMB      35              0.0000000000
      4659        41  POPC      C22           -24.8353685335        7.3575858789       14.9424687008  MEMB      35              0.0000000000
      4660        41  POPC      H2R           -24.8749445411        6.2502131616       14.9744098428  MEMB      35              0.0000000000
      4661        41  POPC      H2S           -23.8354454245        7.6872565850       15.2854757706  MEMB      35              0.0000000000
      4662        41  POPC      C3            -27.1913467185       11.1863659497       15.5454689461  MEMB      35              0.0000000000
      4663        41  POPC      HX            -26.4705513876       11.9429062586       15.9265050751  MEMB      35              0.0000000000
      4664        41  POPC      HY            -28.2023254842       11.5910048652       15.7522326305  MEMB      35              0.0000000000
      4665        41  POPC      O31           -26.9601513605       11.0562668545       14.1153119032  MEMB      35              0.0000000000
      4666        41  POPC      C31           -27.7297079700       10.1913760304       13.4598474771  MEMB      35              0.0000000000
      4667        41  POPC      O32           -28.5705265139        9.4712607117       13.9699168739  MEMB      35              0.0000000000
      4668        41  POPC      C32           -27.4448862887       10.1327013951       11.9537529751  MEMB      35              0.0000000000
      4669        41  POPC      H2X           -28.4385776862        9.9803981548       11.4775275499  MEMB      35              0.0000000000
      4670        41  POPC      H2Y           -26.8538120322        9.2129106504       11.7743605473  MEMB      35              0.0000000000
      4671        41  POPC      C23           -25.0985840558        7.8393059835       13.4930812601  MEMB      35              0.0000000000
      4672        41  POPC      H3R           -24.9691382286        8.9423166547       13.4274260480  MEMB      35              0.0000000000
      4673        41  POPC      H3S           -26.1521017603        7.5940528965       13.2245811142  MEMB      35              0.0000000000
      4674        41  POPC      C24           -24.1950995858        7.1521721883       12.4650942135  MEMB      35              0.0000000000
      4675        41  POPC      H4R           -24.3533442818        6.0558004918       12.5891826779  MEMB      35              0.0000000000
      4676        41  POPC      H4S           -23.1287988226        7.3731567697       12.6852852001  MEMB      35              0.0000000000
      4677        41  POPC      C25           -24.5065152803        7.5034417593       11.0022157955  MEMB      35              0.0000000000
      4678        41  POPC      H5R           -25.6098782563        7.5085863016       10.8784537562  MEMB      35              0.0000000000
      4679        41  POPC      H5S           -24.0993817958        6.7043283268       10.3384954039  MEMB      35              0.0000000000
      4680        41  POPC      C26           -23.9322456816        8.8461105490       10.5294508104  MEMB      35              0.0000000000
      4681        41  POPC      H6R           -24.1344595330        9.6458371362       11.2717812497  MEMB      35              0.0000000000
      4682        41  POPC      H6S           -24.4595370174        9.1205957217        9.5862597656  MEMB      35              0.0000000000
      4683        41  POPC      C27           -22.4332642843        8.7740163540       10.2065464978  MEMB      35              0.0000000000
      4684        41  POPC      H7R           -22.2803519825        7.8668575623        9.5820444193  MEMB      35              0.0000000000
      4685        41  POPC      H7S           -21.8402418746        8.6381825437       11.1392126845  MEMB      35              0.0000000000
      4686        41  POPC      C28           -21.9422085354       10.0098440622        9.4348090317  MEMB      35              0.0000000000
      4687        41  POPC      H8R           -21.8568348408       10.8602666805       10.1500768758  MEMB      35              0.0000000000
      4688        41  POPC      H8S           -22.7289206563       10.2914235140        8.7002663856  MEMB      35              0.0000000000
      4689        41  POPC      C29           -20.6200584843        9.7479118990        8.7561344400  MEMB      35              0.0000000000
      4690        41  POPC      H91           -19.8468431902        9.3225772653        9.4164064101  MEMB      35              0.0000000000
      4691        41  POPC      C210          -20.3260488840        9.9471517094        7.4561586293  MEMB      35              0.0000000000
      4692        41  POPC      H101          -19.3102151996        9.7173310302        7.1100714531  MEMB      35              0.0000000000
      4693        41  POPC      C211          -21.2531085675       10.4754109036        6.3892402558  MEMB      35              0.0000000000
      4694        41  POPC      H11R          -21.2456965554       11.5883885601        6.3980363213  MEMB      35              0.0000000000
      4695        41  POPC      H11S          -22.2968158971       10.1595612620        6.5923885099  MEMB      35              0.0000000000
      4696        41  POPC      C212          -20.9011619081       10.0361756261        4.9507367949  MEMB      35              0.0000000000
      4697        41  POPC      H12R          -19.9069963913       10.4524191015        4.6752322278  MEMB      35              0.0000000000
      4698        41  POPC      H12S          -21.6412357924       10.4994793450        4.2594390984  MEMB      35              0.0000000000
      4699        41  POPC      C213          -20.8946655634        8.5130995652        4.7182748930  MEMB      35              0.0000000000
      4700        41  POPC      H13R          -20.0562288207        8.0755724573        5.3023745139  MEMB      35              0.0000000000
      4701        41  POPC      H13S          -20.6746737732        8.3099230974        3.6463663442  MEMB      35              0.0000000000
      4702        41  POPC      C214          -22.2006596256        7.7916710897        5.1052248666  MEMB      35              0.0000000000
      4703        41  POPC      H14R          -22.4857683640        8.0617643296        6.1446844933  MEMB      35              0.0000000000
      4704        41  POPC      H14S          -22.0267360276        6.6914249166        5.0936377048  MEMB      35              0.0000000000
      4705        41  POPC      C215          -23.3630526915        8.0915326336        4.1523962335  MEMB      35              0.0000000000
      4706        41  POPC      H15R          -23.3211384456        9.1556710548        3.8342723725  MEMB      35              0.0000000000
      4707        41  POPC      H15S          -24.3324478458        7.9462625543        4.6820799104  MEMB      35              0.0000000000
      4708        41  POPC      C216          -23.3375664108        7.1707311057        2.9261891102  MEMB      35              0.0000000000
      4709        41  POPC      H16R          -23.7086906517        6.1672303823        3.2363911330  MEMB      35              0.0000000000
      4710        41  POPC      H16S          -22.2909876252        7.0444142872        2.5700858762  MEMB      35              0.0000000000
      4711        41  POPC      C217          -24.1843608071        7.6995964254        1.7680548474  MEMB      35              0.0000000000
      4712        41  POPC      H17R          -25.0323319680        8.2810021647        2.1909509364  MEMB      35              0.0000000000
      4713        41  POPC      H17S          -24.6159672733        6.8390372048        1.2133631308  MEMB      35              0.0000000000
      4714        41  POPC      C218          -23.3874027713        8.5555546508        0.7811956765  MEMB      35              0.0000000000
      4715        41  POPC      H18R          -22.6124004890        7.9443262315        0.2705611112  MEMB      35              0.0000000000
      4716        41  POPC      H18S          -22.8734624223        9.3780592903        1.3184774345  MEMB      35              0.0000000000
      4717        41  POPC      H18T          -24.0561176472        8.9977284548        0.0123915416  MEMB      35              0.0000000000
      4718        41  POPC      C33           -26.7600140334       11.3209648613       11.2360125269  MEMB      35              0.0000000000
      4719        41  POPC      H3X           -25.6952530387       11.3874893078       11.5507407138  MEMB      35              0.0000000000
      4720        41  POPC      H3Y           -27.2566915007       12.2845792929       11.4878959596  MEMB      35              0.0000000000
      4721        41  POPC      C34           -26.8526894594       11.0680944373        9.7201462749  MEMB      35              0.0000000000
      4722        41  POPC      H4X           -27.8761446404       11.3143998106        9.3588580787  MEMB      35              0.0000000000
      4723        41  POPC      H4Y           -26.7124528055        9.9705126710        9.5665839332  MEMB      35              0.0000000000
      4724        41  POPC      C35           -25.8022204549       11.7737669698        8.8523028211  MEMB      35              0.0000000000
      4725        41  POPC      H5X           -24.8032441500       11.6674987927        9.3339533247  MEMB      35              0.0000000000
      4726        41  POPC      H5Y           -26.0286419151       12.8593170969        8.7714902229  MEMB      35              0.0000000000
      4727        41  POPC      C36           -25.7325039002       11.1246406174        7.4602562296  MEMB      35              0.0000000000
      4728        41  POPC      H6X           -26.6966336799       11.2456529801        6.9214398812  MEMB      35              0.0000000000
      4729        41  POPC      H6Y           -25.5754091865       10.0299663029        7.6143640663  MEMB      35              0.0000000000
      4730        41  POPC      C37           -24.5703185862       11.6137414131        6.5856493254  MEMB      35              0.0000000000
      4731        41  POPC      H7X           -24.3187088811       10.7921461886        5.8726346424  MEMB      35              0.0000000000
      4732        41  POPC      H7Y           -23.6756385114       11.8083294730        7.2136969507  MEMB      35              0.0000000000
      4733        41  POPC      C38           -24.8872359389       12.8482312709        5.7402665363  MEMB      35              0.0000000000
      4734        41  POPC      H8X           -25.0561962780       13.7195977410        6.4059150254  MEMB      35              0.0000000000
      4735        41  POPC      H8Y           -25.8339804996       12.6544936558        5.1861401990  MEMB      35              0.0000000000
      4736        41  POPC      C39           -23.7670617805       13.1592689026        4.7297239564  MEMB      35              0.0000000000
      4737        41  POPC      H9X           -23.3095469294       12.2014005339        4.3956559107  MEMB      35              0.0000000000
      4738        41  POPC      H9Y           -22.9646785886       13.7374793252        5.2395878650  MEMB      35              0.0000000000
      4739        41  POPC      C310          -24.2664641788       13.9144539066        3.4845201934  MEMB      35              0.0000000000
      4740        41  POPC      H10X          -23.7507921260       14.8971224664        3.4227446560  MEMB      35              0.0000000000
      4741        41  POPC      H10Y          -25.3537683580       14.1210890948        3.6092673123  MEMB      35              0.0000000000
      4742        41  POPC      C311          -24.0831534628       13.1477340954        2.1602137401  MEMB      35              0.0000000000
      4743        41  POPC      H11X          -23.0094769008       12.9652842649        1.9611434819  MEMB      35              0.0000000000
      4744        41  POPC      H11Y          -24.4725855778       13.7761944093        1.3284230443  MEMB      35              0.0000000000
      4745        41  POPC      C312          -24.8076337931       11.7958891333        2.1678404083  MEMB      35              0.0000000000
      4746        41  POPC      H12X          -25.3763975449       11.7723121638        3.1197223168  MEMB      35              0.0000000000
      4747        41  POPC      H12Y          -24.0762534909       10.9636546710        2.2210972207  MEMB      35              0.0000000000
      4748        41  POPC      C313          -25.7657822263       11.5976104321        0.9844167126  MEMB      35              0.0000000000
      4749        41  POPC      H13X          -25.1880480009       11.3766363454        0.0611017444  MEMB      35              0.0000000000
      4750        41  POPC      H13Y          -26.3183322776       12.5496025254        0.8169305368  MEMB      35              0.0000000000
      4751        41  POPC      C314          -26.8233387869       10.5063631180        1.2161957851  MEMB      35              0.0000000000
      4752        41  POPC      H14X          -26.3674560138        9.4989008807        1.1376656287  MEMB      35              0.0000000000
      4753        41  POPC      H14Y          -27.5846586346       10.5877441442        0.4066748407  MEMB      35              0.0000000000
      4754        41  POPC      C315          -27.5173790176       10.6589058545        2.5747946893  MEMB      35              0.0000000000
      4755        41  POPC      H15X          -27.7240279580       11.7432348316        2.7307632056  MEMB      35              0.0000000000
      4756        41  POPC      H15Y          -26.8334684355       10.3369916499        3.3924025135  MEMB      35              0.0000000000
      4757        41  POPC      C316          -28.8159797131        9.8850644725        2.7145953120  MEMB      35              0.0000000000
      4758        41  POPC      H16X          -29.4570033449       10.3887229706        3.4632654241  MEMB      35              0.0000000000
      4759        41  POPC      H16Y          -28.6191978068        8.8455194170        3.0475825014  MEMB      35              0.0000000000
      4760        41  POPC      H16Z          -29.3801112843        9.8615797007        1.7599423550  MEMB      35              0.0000000000
      4761        42  POPC      N              28.4419841503        7.4245401422       20.7455958631  MEMB      36              0.0000000000
      4762        42  POPC      C12            29.4119329997        8.1429731150       19.8018905064  MEMB      36              0.0000000000
      4763        42  POPC      H12A           29.7482633545        7.4423038534       19.0379115593  MEMB      36              0.0000000000
      4764        42  POPC      H12B           30.3144539334        8.4014360926       20.3481581270  MEMB      36              0.0000000000
      4765        42  POPC      C13            27.6194569289        6.4950299483       19.8910472758  MEMB      36              0.0000000000
      4766        42  POPC      H13A           28.2565369912        5.8030982450       19.3383043488  MEMB      36              0.0000000000
      4767        42  POPC      H13B           26.9468185460        5.8967301701       20.4805134134  MEMB      36              0.0000000000
      4768        42  POPC      H13C           27.0633854706        7.0502519910       19.1254074565  MEMB      36              0.0000000000
      4769        42  POPC      C14            29.1384444692        6.6045117495       21.7885059333  MEMB      36              0.0000000000
      4770        42  POPC      H14A           28.4270696332        6.2122477569       22.5059760797  MEMB      36              0.0000000000
      4771        42  POPC      H14B           29.6893007769        5.7751083882       21.3389834516  MEMB      36              0.0000000000
      4772        42  POPC      H14C           29.8465815233        7.1931042481       22.3705595553  MEMB      36              0.0000000000
      4773        42  POPC      C15            27.5570985317        8.4148310111       21.4353052424  MEMB      36              0.0000000000
      4774        42  POPC      H15A           28.1293296644        9.0916813381       22.0557733950  MEMB      36              0.0000000000
      4775        42  POPC      H15B           26.8083878513        7.9490083136       22.0684021258  MEMB      36              0.0000000000
      4776        42  POPC      H15C           27.0152591968        8.9591544283       20.6637496683  MEMB      36              0.0000000000
      4777        42  POPC      C11            28.9266848536        9.4374236604       19.0526950798  MEMB      36              0.0000000000
      4778        42  POPC      H11A           29.7026033812        9.7106288275       18.2967502353  MEMB      36              0.0000000000
      4779        42  POPC      H11B           28.9522212239       10.2626256430       19.7824556016  MEMB      36              0.0000000000
      4780        42  POPC      P              27.3990607779        8.7745068283       17.0216820835  MEMB      36              0.0000000000
      4781        42  POPC      O13            26.5903428313        7.5516219902       17.2165685479  MEMB      36              0.0000000000
      4782        42  POPC      O14            28.7202728395        8.6025580430       16.3923652662  MEMB      36              0.0000000000
      4783        42  POPC      O12            27.6036142737        9.3942009691       18.4877469438  MEMB      36              0.0000000000
      4784        42  POPC      O11            26.5680531611        9.8306432823       16.1703930881  MEMB      36              0.0000000000
      4785        42  POPC      C1             25.3921557371       10.4769630584       16.6470325727  MEMB      36              0.0000000000
      4786        42  POPC      HA             25.6515839603       11.1696997433       17.4757406187  MEMB      36              0.0000000000
      4787        42  POPC      HB             24.6758746111        9.7175849308       17.0372342632  MEMB      36              0.0000000000
      4788        42  POPC      C2             24.6499787474       11.2867694417       15.5221274786  MEMB      36              0.0000000000
      4789        42  POPC      HS             23.6402973251       11.5420486749       15.9267991200  MEMB      36              0.0000000000
      4790        42  POPC      O21            24.5455889092       10.5143286374       14.3099417443  MEMB      36              0.0000000000
      4791        42  POPC      C21            23.6549284855        9.5612423891       14.3433426241  MEMB      36              0.0000000000
      4792        42  POPC      O22            22.7206789390        9.4975977730       15.1287352340  MEMB      36              0.0000000000
      4793        42  POPC      C22            23.9503799133        8.5680224764       13.2133623350  MEMB      36              0.0000000000
      4794        42  POPC      H2R            23.5682418163        8.9852321643       12.2628497219  MEMB      36              0.0000000000
      4795        42  POPC      H2S            23.3848907831        7.6482598097       13.4360861373  MEMB      36              0.0000000000
      4796        42  POPC      C3             25.3119807991       12.6522914056       15.1505749864  MEMB      36              0.0000000000
      4797        42  POPC      HX             25.6368818986       13.1935440570       16.0664268559  MEMB      36              0.0000000000
      4798        42  POPC      HY             24.5244588482       13.2775042387       14.6673424636  MEMB      36              0.0000000000
      4799        42  POPC      O31            26.3713565857       12.4799250003       14.1896417626  MEMB      36              0.0000000000
      4800        42  POPC      C31            27.5389932385       12.1386134555       14.7198722734  MEMB      36              0.0000000000
      4801        42  POPC      O32            27.9021219296       12.4238359855       15.8480979525  MEMB      36              0.0000000000
      4802        42  POPC      C32            28.3641941250       11.4164792189       13.6571503368  MEMB      36              0.0000000000
      4803        42  POPC      H2X            27.6644202009       10.7946121742       13.0631606351  MEMB      36              0.0000000000
      4804        42  POPC      H2Y            29.0696976614       10.7331563027       14.1772371489  MEMB      36              0.0000000000
      4805        42  POPC      C23            25.4522041951        8.2118333809       13.0749319322  MEMB      36              0.0000000000
      4806        42  POPC      H3R            25.9473717678        8.1870351878       14.0754895567  MEMB      36              0.0000000000
      4807        42  POPC      H3S            25.9463417832        9.0205145354       12.4910837663  MEMB      36              0.0000000000
      4808        42  POPC      C24            25.6943548335        6.8507657572       12.3956886969  MEMB      36              0.0000000000
      4809        42  POPC      H4R            24.7626271257        6.5326007091       11.8835668853  MEMB      36              0.0000000000
      4810        42  POPC      H4S            25.9154570260        6.0884225913       13.1763503081  MEMB      36              0.0000000000
      4811        42  POPC      C25            26.8291328885        6.8670425867       11.3546013857  MEMB      36              0.0000000000
      4812        42  POPC      H5R            26.5751640330        7.5887100060       10.5456592922  MEMB      36              0.0000000000
      4813        42  POPC      H5S            26.9185984521        5.8598904082       10.8911414924  MEMB      36              0.0000000000
      4814        42  POPC      C26            28.1898860363        7.2568285872       11.9542278953  MEMB      36              0.0000000000
      4815        42  POPC      H6R            28.5185752194        6.4714781696       12.6707034416  MEMB      36              0.0000000000
      4816        42  POPC      H6S            28.0805875523        8.2011670188       12.5336373187  MEMB      36              0.0000000000
      4817        42  POPC      C27            29.2820185483        7.4855331929       10.8958185281  MEMB      36              0.0000000000
      4818        42  POPC      H7R            30.1824647997        7.8777797357       11.4252093970  MEMB      36              0.0000000000
      4819        42  POPC      H7S            28.9382807529        8.2683918974       10.1821123051  MEMB      36              0.0000000000
      4820        42  POPC      C28            29.6703815935        6.2112593541       10.1274867153  MEMB      36              0.0000000000
      4821        42  POPC      H8R            28.8048862878        5.8594374770        9.5247846814  MEMB      36              0.0000000000
      4822        42  POPC      H8S            29.8931567172        5.4119471985       10.8697798993  MEMB      36              0.0000000000
      4823        42  POPC      C29            30.8886534691        6.4498528173        9.2742017710  MEMB      36              0.0000000000
      4824        42  POPC      H91            31.8360412472        6.1734805317        9.7632102166  MEMB      36              0.0000000000
      4825        42  POPC      C210           30.9107699521        6.9854766106        8.0406543701  MEMB      36              0.0000000000
      4826        42  POPC      H101           31.8767238993        7.1131420612        7.5261809701  MEMB      36              0.0000000000
      4827        42  POPC      C211           29.7013036965        7.4502254403        7.2717037238  MEMB      36              0.0000000000
      4828        42  POPC      H11R           29.5657319405        8.5480838159        7.4049212680  MEMB      36              0.0000000000
      4829        42  POPC      H11S           28.7684405694        6.9683501071        7.6446158310  MEMB      36              0.0000000000
      4830        42  POPC      C212           29.8135018852        7.1608614238        5.7658716158  MEMB      36              0.0000000000
      4831        42  POPC      H12R           30.1307959497        6.1084615258        5.5849628018  MEMB      36              0.0000000000
      4832        42  POPC      H12S           30.5839042080        7.8298135871        5.3185647838  MEMB      36              0.0000000000
      4833        42  POPC      C213           28.4616957285        7.3958489387        5.0833485349  MEMB      36              0.0000000000
      4834        42  POPC      H13R           28.0394618809        8.3498462649        5.4647125302  MEMB      36              0.0000000000
      4835        42  POPC      H13S           27.7640195657        6.5770696870        5.3735376676  MEMB      36              0.0000000000
      4836        42  POPC      C214           28.5116060774        7.5116918871        3.5576424722  MEMB      36              0.0000000000
      4837        42  POPC      H14R           28.9626229761        8.4927319093        3.2867935739  MEMB      36              0.0000000000
      4838        42  POPC      H14S           27.4625948270        7.5180111334        3.1862225136  MEMB      36              0.0000000000
      4839        42  POPC      C215           29.2946063067        6.3897384720        2.8642267402  MEMB      36              0.0000000000
      4840        42  POPC      H15R           29.0848162060        5.4245853573        3.3784457911  MEMB      36              0.0000000000
      4841        42  POPC      H15S           30.3826756633        6.5932565434        2.9737497179  MEMB      36              0.0000000000
      4842        42  POPC      C216           28.9407210847        6.2231676647        1.3762393980  MEMB      36              0.0000000000
      4843        42  POPC      H16R           27.9502382323        5.7175123106        1.3173515443  MEMB      36              0.0000000000
      4844        42  POPC      H16S           29.6799475330        5.5478138004        0.8938592232  MEMB      36              0.0000000000
      4845        42  POPC      C217           28.8278747116        7.5310500523        0.5739739719  MEMB      36              0.0000000000
      4846        42  POPC      H17R           27.9658899093        8.1062189196        0.9718793204  MEMB      36              0.0000000000
      4847        42  POPC      H17S           28.5846269384        7.2714356678       -0.4806947016  MEMB      36              0.0000000000
      4848        42  POPC      C218           30.0506347297        8.4468156823        0.5974209588  MEMB      36              0.0000000000
      4849        42  POPC      H18R           29.7887221103        9.4583973563        0.2199069976  MEMB      36              0.0000000000
      4850        42  POPC      H18S           30.8519042111        8.0434877987       -0.0497901405  MEMB      36              0.0000000000
      4851        42  POPC      H18T           30.4558615086        8.5565597249        1.6251929567  MEMB      36              0.0000000000
      4852        42  POPC      C33            29.1293352444       12.4124840708       12.7609030381  MEMB      36              0.0000000000
      4853        42  POPC      H3X            30.2015718771       12.4109769150       13.0637490331  MEMB      36              0.0000000000
      4854        42  POPC      H3Y            28.7442790969       13.4453117411       12.9152090752  MEMB      36              0.0000000000
      4855        42  POPC      C34            29.0330968620       12.1334619518       11.2536071607  MEMB      36              0.0000000000
      4856        42  POPC      H4X            29.5051757084       11.1558344423       11.0103683383  MEMB      36              0.0000000000
      4857        42  POPC      H4Y            29.6216128114       12.9426894579       10.7657288636  MEMB      36              0.0000000000
      4858        42  POPC      C35            27.6110620958       12.1867188831       10.6727734435  MEMB      36              0.0000000000
      4859        42  POPC      H5X            27.0575399494       13.0048218442       11.1814636380  MEMB      36              0.0000000000
      4860        42  POPC      H5Y            27.0616086139       11.2496270642       10.9042182198  MEMB      36              0.0000000000
      4861        42  POPC      C36            27.5917942428       12.4515047756        9.1550122003  MEMB      36              0.0000000000
      4862        42  POPC      H6X            28.5103589315       13.0067984726        8.8657829558  MEMB      36              0.0000000000
      4863        42  POPC      H6Y            26.7301102760       13.1073755072        8.8996583463  MEMB      36              0.0000000000
      4864        42  POPC      C37            27.4654860237       11.1740901666        8.3127986484  MEMB      36              0.0000000000
      4865        42  POPC      H7X            27.9363589932       10.3272484430        8.8583968737  MEMB      36              0.0000000000
      4866        42  POPC      H7Y            28.0195810401       11.3058798586        7.3543984578  MEMB      36              0.0000000000
      4867        42  POPC      C38            26.0034937889       10.8461072530        7.9683828093  MEMB      36              0.0000000000
      4868        42  POPC      H8X            25.6568897185       11.5982697887        7.2250021823  MEMB      36              0.0000000000
      4869        42  POPC      H8Y            25.3712869415       10.9509219314        8.8780566857  MEMB      36              0.0000000000
      4870        42  POPC      C39            25.8410703216        9.4279277612        7.4057798248  MEMB      36              0.0000000000
      4871        42  POPC      H9X            25.9048437134        8.7019031582        8.2475211673  MEMB      36              0.0000000000
      4872        42  POPC      H9Y            26.7015859505        9.2136887669        6.7425294432  MEMB      36              0.0000000000
      4873        42  POPC      C310           24.5342896716        9.1914689866        6.6278013127  MEMB      36              0.0000000000
      4874        42  POPC      H10X           23.6688392966        9.3991166687        7.2962873055  MEMB      36              0.0000000000
      4875        42  POPC      H10Y           24.4870263995        8.1132953571        6.3475226546  MEMB      36              0.0000000000
      4876        42  POPC      C311           24.3788546881       10.0208221988        5.3369321304  MEMB      36              0.0000000000
      4877        42  POPC      H11X           24.2974699548       11.1003516452        5.5888926293  MEMB      36              0.0000000000
      4878        42  POPC      H11Y           23.4189926465        9.7197913068        4.8595477331  MEMB      36              0.0000000000
      4879        42  POPC      C312           25.5188343189        9.8318099275        4.3217135199  MEMB      36              0.0000000000
      4880        42  POPC      H12X           25.5904297452        8.7540859982        4.0537792415  MEMB      36              0.0000000000
      4881        42  POPC      H12Y           26.4846779687       10.1235028203        4.7919558439  MEMB      36              0.0000000000
      4882        42  POPC      C313           25.3630156415       10.6750565230        3.0428498628  MEMB      36              0.0000000000
      4883        42  POPC      H13X           26.2517647852       10.4940823940        2.3967164769  MEMB      36              0.0000000000
      4884        42  POPC      H13Y           25.3802337709       11.7480216195        3.3347641431  MEMB      36              0.0000000000
      4885        42  POPC      C314           24.0824243304       10.4110410590        2.2305395427  MEMB      36              0.0000000000
      4886        42  POPC      H14X           24.0887539978       11.0735544972        1.3347823326  MEMB      36              0.0000000000
      4887        42  POPC      H14Y           23.1981536274       10.6976556985        2.8419660012  MEMB      36              0.0000000000
      4888        42  POPC      C315           23.9160600275        8.9570032647        1.7606648105  MEMB      36              0.0000000000
      4889        42  POPC      H15X           22.9396678724        8.8619096979        1.2385114811  MEMB      36              0.0000000000
      4890        42  POPC      H15Y           23.8695900070        8.2885742614        2.6500889501  MEMB      36              0.0000000000
      4891        42  POPC      C316           25.0280567618        8.4744363479        0.8275688769  MEMB      36              0.0000000000
      4892        42  POPC      H16X           25.1434994215        9.1582000887       -0.0400188264  MEMB      36              0.0000000000
      4893        42  POPC      H16Y           24.8085175098        7.4538627972        0.4478852205  MEMB      36              0.0000000000
      4894        42  POPC      H16Z           25.9870843685        8.4334219151        1.3812555288  MEMB      36              0.0000000000
      4895        43  POPS      N             -28.8391505092       -3.8289004862       21.2614003711  MEMB      37              0.0000000000
      4896        43  POPS      HN1           -29.7896537469       -3.5664401878       21.6029807134  MEMB      37              0.0000000000
      4897        43  POPS      HN2           -28.9201822989       -4.6374483739       20.5905916870  MEMB      37              0.0000000000
      4898        43  POPS      HN3           -28.1166692934       -4.0188344723       21.9821067875  MEMB      37              0.0000000000
      4899        43  POPS      C12           -28.4688989782       -2.6588158609       20.4296898517  MEMB      37              0.0000000000
      4900        43  POPS      H12A          -27.6116745822       -2.1885906156       20.8754733676  MEMB      37              0.0000000000
      4901        43  POPS      C13           -29.6445185127       -1.6595589731       20.4064101910  MEMB      37              0.0000000000
      4902        43  POPS      O13A          -30.7397307858       -1.9985105797       20.9465601207  MEMB      37              0.0000000000
      4903        43  POPS      O13B          -29.4598334685       -0.5386351729       19.8808824316  MEMB      37              0.0000000000
      4904        43  POPS      C11           -28.1192557439       -3.1588379292       19.0049303490  MEMB      37              0.0000000000
      4905        43  POPS      H11A          -27.5331894597       -2.3682722161       18.4835471015  MEMB      37              0.0000000000
      4906        43  POPS      H11B          -29.0550464748       -3.2891639288       18.4055650676  MEMB      37              0.0000000000
      4907        43  POPS      P             -27.9731337622       -5.7485338431       18.6719501154  MEMB      37              0.0000000000
      4908        43  POPS      O13           -29.1031208829       -5.9919457495       19.6195813952  MEMB      37              0.0000000000
      4909        43  POPS      O14           -26.9114453410       -6.7674048378       18.6137634103  MEMB      37              0.0000000000
      4910        43  POPS      O12           -27.3329369737       -4.3571833420       19.0888339151  MEMB      37              0.0000000000
      4911        43  POPS      O11           -28.5361776519       -5.4117377648       17.2290551759  MEMB      37              0.0000000000
      4912        43  POPS      C1            -29.6127146127       -6.1635543729       16.6516221173  MEMB      37              0.0000000000
      4913        43  POPS      HA            -30.5788961717       -5.8048458746       17.0659142114  MEMB      37              0.0000000000
      4914        43  POPS      HB            -29.5317428780       -7.2420010721       16.9090539053  MEMB      37              0.0000000000
      4915        43  POPS      C2            -29.6840549939       -6.0950040388       15.0767738680  MEMB      37              0.0000000000
      4916        43  POPS      HS            -30.2481758867       -6.9997188374       14.7483034455  MEMB      37              0.0000000000
      4917        43  POPS      O21           -28.3706789564       -6.0631840119       14.4934536843  MEMB      37              0.0000000000
      4918        43  POPS      C21           -28.2049654114       -6.5518760164       13.2721008476  MEMB      37              0.0000000000
      4919        43  POPS      O22           -29.0564314654       -7.0921813399       12.5877683611  MEMB      37              0.0000000000
      4920        43  POPS      C22           -26.7592084281       -6.2426129107       12.8665894113  MEMB      37              0.0000000000
      4921        43  POPS      H2R           -26.1102595248       -6.7684724636       13.5971799058  MEMB      37              0.0000000000
      4922        43  POPS      H2S           -26.5877396097       -5.1535399015       12.9892329776  MEMB      37              0.0000000000
      4923        43  POPS      C3            -30.4844381492       -4.8309164878       14.6437070554  MEMB      37              0.0000000000
      4924        43  POPS      HX            -29.8394114924       -3.9333382872       14.7907643999  MEMB      37              0.0000000000
      4925        43  POPS      HY            -31.3263550493       -4.7365066173       15.3606899775  MEMB      37              0.0000000000
      4926        43  POPS      O31           -31.0525140368       -4.9511937651       13.3177538682  MEMB      37              0.0000000000
      4927        43  POPS      C31           -30.4158685874       -4.3013975557       12.3482715342  MEMB      37              0.0000000000
      4928        43  POPS      O32           -29.4964400432       -3.5192129033       12.4918016427  MEMB      37              0.0000000000
      4929        43  POPS      C32           -31.0297803767       -4.7312231241       11.0132560475  MEMB      37              0.0000000000
      4930        43  POPS      H2X           -32.0752936591       -4.3691544388       10.9801795923  MEMB      37              0.0000000000
      4931        43  POPS      H2Y           -31.0392634244       -5.8427021468       11.0083148670  MEMB      37              0.0000000000
      4932        43  POPS      C23           -26.3573367263       -6.6825095865       11.4395360991  MEMB      37              0.0000000000
      4933        43  POPS      H3R           -26.7905210460       -7.6711676580       11.1860927450  MEMB      37              0.0000000000
      4934        43  POPS      H3S           -25.2492305487       -6.8059174304       11.4523319237  MEMB      37              0.0000000000
      4935        43  POPS      C24           -26.6879726596       -5.6617432837       10.3391007978  MEMB      37              0.0000000000
      4936        43  POPS      H4R           -26.9481674972       -4.6788922399       10.7931815569  MEMB      37              0.0000000000
      4937        43  POPS      H4S           -27.5722783032       -6.0247459730        9.7768854936  MEMB      37              0.0000000000
      4938        43  POPS      C25           -25.5067551811       -5.4563989347        9.3779850576  MEMB      37              0.0000000000
      4939        43  POPS      H5R           -25.2091353231       -6.4391629827        8.9505918580  MEMB      37              0.0000000000
      4940        43  POPS      H5S           -24.6615485382       -5.0690271362        9.9925275238  MEMB      37              0.0000000000
      4941        43  POPS      C26           -25.7405708158       -4.4545772313        8.2382474855  MEMB      37              0.0000000000
      4942        43  POPS      H6R           -24.7976516275       -4.3467306086        7.6558151760  MEMB      37              0.0000000000
      4943        43  POPS      H6S           -25.9556566580       -3.4591367427        8.6892061081  MEMB      37              0.0000000000
      4944        43  POPS      C27           -26.8892087518       -4.8077283155        7.2768836465  MEMB      37              0.0000000000
      4945        43  POPS      H7R           -27.0272829324       -3.9521574146        6.5787609580  MEMB      37              0.0000000000
      4946        43  POPS      H7S           -27.8287031135       -4.8893137435        7.8644809913  MEMB      37              0.0000000000
      4947        43  POPS      C28           -26.7062640730       -6.1057814388        6.4640364172  MEMB      37              0.0000000000
      4948        43  POPS      H8R           -27.6604230686       -6.3013112433        5.9224246489  MEMB      37              0.0000000000
      4949        43  POPS      H8S           -26.5600478058       -6.9604368174        7.1609024862  MEMB      37              0.0000000000
      4950        43  POPS      C29           -25.5546264843       -5.9990689097        5.4979986347  MEMB      37              0.0000000000
      4951        43  POPS      H91           -24.5625703530       -6.2038987670        5.9293961163  MEMB      37              0.0000000000
      4952        43  POPS      C210          -25.6406942318       -5.6912406309        4.1924118237  MEMB      37              0.0000000000
      4953        43  POPS      H101          -24.7108353128       -5.6097391568        3.6084040363  MEMB      37              0.0000000000
      4954        43  POPS      C211          -26.8988990754       -5.3897833231        3.4172796706  MEMB      37              0.0000000000
      4955        43  POPS      H11R          -27.6997092214       -6.1289141934        3.6520011437  MEMB      37              0.0000000000
      4956        43  POPS      H11S          -26.6933581473       -5.4916896334        2.3266784454  MEMB      37              0.0000000000
      4957        43  POPS      C212          -27.4696482892       -3.9761210577        3.6552510403  MEMB      37              0.0000000000
      4958        43  POPS      H12R          -27.9679569982       -3.9225526648        4.6454616518  MEMB      37              0.0000000000
      4959        43  POPS      H12S          -28.2583271139       -3.8137626370        2.8926749341  MEMB      37              0.0000000000
      4960        43  POPS      C213          -26.4304826514       -2.8490239895        3.5372925889  MEMB      37              0.0000000000
      4961        43  POPS      H13R          -25.7409183752       -3.0999619418        2.7047204089  MEMB      37              0.0000000000
      4962        43  POPS      H13S          -25.8171769973       -2.8211950196        4.4663888373  MEMB      37              0.0000000000
      4963        43  POPS      C214          -27.0379251766       -1.4532886480        3.2951449662  MEMB      37              0.0000000000
      4964        43  POPS      H14R          -26.2080153691       -0.7099081977        3.2742067002  MEMB      37              0.0000000000
      4965        43  POPS      H14S          -27.6961115299       -1.1971973632        4.1552900719  MEMB      37              0.0000000000
      4966        43  POPS      C215          -27.8458917240       -1.3143461246        1.9898837353  MEMB      37              0.0000000000
      4967        43  POPS      H15R          -28.2173627514       -0.2677358112        1.9083457309  MEMB      37              0.0000000000
      4968        43  POPS      H15S          -28.7411273553       -1.9706622666        2.0301382992  MEMB      37              0.0000000000
      4969        43  POPS      C216          -27.0330516181       -1.6477685909        0.7292894666  MEMB      37              0.0000000000
      4970        43  POPS      H16R          -26.5589641236       -2.6476974190        0.8288004201  MEMB      37              0.0000000000
      4971        43  POPS      H16S          -26.2269029773       -0.8917459498        0.6308012726  MEMB      37              0.0000000000
      4972        43  POPS      C217          -27.8730143535       -1.6744166419       -0.5503541927  MEMB      37              0.0000000000
      4973        43  POPS      H17R          -28.5012798820       -0.7600098385       -0.5786508325  MEMB      37              0.0000000000
      4974        43  POPS      H17S          -28.5615579782       -2.5479553524       -0.5015353073  MEMB      37              0.0000000000
      4975        43  POPS      C218          -27.0405802028       -1.7586465857       -1.8310884688  MEMB      37              0.0000000000
      4976        43  POPS      H18R          -26.4453815247       -0.8314698388       -1.9709701987  MEMB      37              0.0000000000
      4977        43  POPS      H18S          -27.6987023338       -1.8903130881       -2.7163493298  MEMB      37              0.0000000000
      4978        43  POPS      H18T          -26.3379136833       -2.6149597993       -1.7823142495  MEMB      37              0.0000000000
      4979        43  POPS      C33           -30.2369805130       -4.2077553396        9.7941800541  MEMB      37              0.0000000000
      4980        43  POPS      H3X           -29.1942340538       -4.5877601317        9.8526291430  MEMB      37              0.0000000000
      4981        43  POPS      H3Y           -30.1770123523       -3.0960595479        9.8371755424  MEMB      37              0.0000000000
      4982        43  POPS      C34           -30.8351531378       -4.6187635663        8.4370016510  MEMB      37              0.0000000000
      4983        43  POPS      H4X           -30.1298592744       -4.3108371837        7.6317942686  MEMB      37              0.0000000000
      4984        43  POPS      H4Y           -31.7846235183       -4.0559026358        8.2874145387  MEMB      37              0.0000000000
      4985        43  POPS      C35           -31.1439702692       -6.1200179608        8.2738323261  MEMB      37              0.0000000000
      4986        43  POPS      H5X           -31.6074610741       -6.2631372950        7.2711848264  MEMB      37              0.0000000000
      4987        43  POPS      H5Y           -31.8959454842       -6.4193988553        9.0324826603  MEMB      37              0.0000000000
      4988        43  POPS      C36           -29.9203854771       -7.0438026672        8.3961355072  MEMB      37              0.0000000000
      4989        43  POPS      H6X           -29.4792936406       -6.9284180894        9.4117206818  MEMB      37              0.0000000000
      4990        43  POPS      H6Y           -29.1554389873       -6.7250045883        7.6569636864  MEMB      37              0.0000000000
      4991        43  POPS      C37           -30.2133160563       -8.5445049719        8.1902647310  MEMB      37              0.0000000000
      4992        43  POPS      H7X           -30.7623249816       -8.9254740390        9.0821794164  MEMB      37              0.0000000000
      4993        43  POPS      H7Y           -29.2466030929       -9.0869440603        8.1426485038  MEMB      37              0.0000000000
      4994        43  POPS      C38           -31.0274702689       -8.9067105267        6.9356329475  MEMB      37              0.0000000000
      4995        43  POPS      H8X           -32.0485086695       -8.4982114375        7.0893705520  MEMB      37              0.0000000000
      4996        43  POPS      H8Y           -31.1234410965      -10.0124078406        6.8541441936  MEMB      37              0.0000000000
      4997        43  POPS      C39           -30.4943740138       -8.3403265830        5.6138489767  MEMB      37              0.0000000000
      4998        43  POPS      H9X           -29.6269732587       -8.9289683295        5.2497470609  MEMB      37              0.0000000000
      4999        43  POPS      H9Y           -30.1261653933       -7.3076679930        5.7894113815  MEMB      37              0.0000000000
      5000        43  POPS      C310          -31.5973766641       -8.2831875613        4.5462985882  MEMB      37              0.0000000000
      5001        43  POPS      H10X          -32.5756150374       -8.0640207995        5.0333358834  MEMB      37              0.0000000000
      5002        43  POPS      H10Y          -31.6892431271       -9.2800777877        4.0602127815  MEMB      37              0.0000000000
      5003        43  POPS      C311          -31.3680772489       -7.1952406377        3.4902959415  MEMB      37              0.0000000000
      5004        43  POPS      H11X          -32.1490007508       -7.3089419860        2.7084991463  MEMB      37              0.0000000000
      5005        43  POPS      H11Y          -30.3789792301       -7.3432908303        3.0118034230  MEMB      37              0.0000000000
      5006        43  POPS      C312          -31.4705706987       -5.7634525394        4.0406415344  MEMB      37              0.0000000000
      5007        43  POPS      H12X          -30.5521282895       -5.5200260966        4.6190253114  MEMB      37              0.0000000000
      5008        43  POPS      H12Y          -32.3349961655       -5.7124501207        4.7416239899  MEMB      37              0.0000000000
      5009        43  POPS      C313          -31.6680350150       -4.6939435459        2.9528752599  MEMB      37              0.0000000000
      5010        43  POPS      H13X          -31.6309987502       -3.6948718555        3.4463647718  MEMB      37              0.0000000000
      5011        43  POPS      H13Y          -32.6788881053       -4.7988151628        2.5057492290  MEMB      37              0.0000000000
      5012        43  POPS      C314          -30.6235623981       -4.7309486567        1.8261678296  MEMB      37              0.0000000000
      5013        43  POPS      H14X          -29.6828173404       -5.1932085770        2.1933335373  MEMB      37              0.0000000000
      5014        43  POPS      H14Y          -30.3912344539       -3.6824919889        1.5322151006  MEMB      37              0.0000000000
      5015        43  POPS      C315          -31.0885888833       -5.4713839219        0.5655336631  MEMB      37              0.0000000000
      5016        43  POPS      H15X          -32.0734798041       -5.0612807620        0.2468389018  MEMB      37              0.0000000000
      5017        43  POPS      H15Y          -31.2307971993       -6.5481522544        0.8048539662  MEMB      37              0.0000000000
      5018        43  POPS      C316          -30.0992621655       -5.3478934050       -0.5908975496  MEMB      37              0.0000000000
      5019        43  POPS      H16X          -29.0876089961       -5.6760582085       -0.2682847068  MEMB      37              0.0000000000
      5020        43  POPS      H16Y          -30.0245883065       -4.2929563485       -0.9275287433  MEMB      37              0.0000000000
      5021        43  POPS      H16Z          -30.4181942065       -5.9725436248       -1.4529694542  MEMB      37              0.0000000000
      5022        44  POPC      N              -7.1971167427      -27.4459389862       19.6357391778  MEMB      38              0.0000000000
      5023        44  POPC      C12            -6.7214507062      -28.8943587989       19.7767075407  MEMB      38              0.0000000000
      5024        44  POPC      H12A           -5.6403281657      -28.9139871571       19.8707642544  MEMB      38              0.0000000000
      5025        44  POPC      H12B           -6.9925477805      -29.4320653872       18.8739838627  MEMB      38              0.0000000000
      5026        44  POPC      C13            -6.8373310580      -26.6808950716       20.8624488551  MEMB      38              0.0000000000
      5027        44  POPC      H13A           -5.7750486905      -26.7018058176       21.0767207684  MEMB      38              0.0000000000
      5028        44  POPC      H13B           -7.1641831995      -25.6538586606       20.8094902058  MEMB      38              0.0000000000
      5029        44  POPC      H13C           -7.3560242185      -27.1434964096       21.7021612647  MEMB      38              0.0000000000
      5030        44  POPC      C14            -6.5582829468      -26.8114415654       18.4459599393  MEMB      38              0.0000000000
      5031        44  POPC      H14A           -6.8360097516      -27.3425624700       17.5408952258  MEMB      38              0.0000000000
      5032        44  POPC      H14B           -6.8948692826      -25.7856749165       18.3302518259  MEMB      38              0.0000000000
      5033        44  POPC      H14C           -5.4812451793      -26.8198089521       18.5521268774  MEMB      38              0.0000000000
      5034        44  POPC      C15            -8.6824594970      -27.4186766965       19.4993062412  MEMB      38              0.0000000000
      5035        44  POPC      H15A           -9.1364437328      -27.9338557697       20.3497802005  MEMB      38              0.0000000000
      5036        44  POPC      H15B           -9.0293511760      -28.0439815923       18.6795475123  MEMB      38              0.0000000000
      5037        44  POPC      H15C           -9.0986189318      -26.4338980951       19.4183488708  MEMB      38              0.0000000000
      5038        44  POPC      C11            -7.2417901201      -29.7858865070       20.9441879325  MEMB      38              0.0000000000
      5039        44  POPC      H11A           -7.0119363101      -29.2682501882       21.8969874644  MEMB      38              0.0000000000
      5040        44  POPC      H11B           -6.6587930020      -30.7367595407       20.9554764865  MEMB      38              0.0000000000
      5041        44  POPC      P              -9.3721592903      -30.7580793948       19.6863239323  MEMB      38              0.0000000000
      5042        44  POPC      O13           -10.4691603310      -29.8247561600       19.3639733114  MEMB      38              0.0000000000
      5043        44  POPC      O14            -9.6964757410      -32.1569767376       20.0637880993  MEMB      38              0.0000000000
      5044        44  POPC      O12            -8.6292490871      -30.0747278555       20.9131001770  MEMB      38              0.0000000000
      5045        44  POPC      O11            -8.2714083808      -30.7923977112       18.5122939175  MEMB      38              0.0000000000
      5046        44  POPC      C1             -8.5203658928      -30.1929188405       17.2343700314  MEMB      38              0.0000000000
      5047        44  POPC      HA             -8.9272854967      -29.1599749155       17.3231041337  MEMB      38              0.0000000000
      5048        44  POPC      HB             -9.2902521488      -30.7661422042       16.6828011024  MEMB      38              0.0000000000
      5049        44  POPC      C2             -7.2357166307      -30.1518290795       16.3530803931  MEMB      38              0.0000000000
      5050        44  POPC      HS             -6.3911054195      -30.5508156413       16.9591696369  MEMB      38              0.0000000000
      5051        44  POPC      O21            -6.9807329210      -28.7789911305       15.9993094233  MEMB      38              0.0000000000
      5052        44  POPC      C21            -5.8415409958      -28.5376592182       15.3654329604  MEMB      38              0.0000000000
      5053        44  POPC      O22            -4.9113768192      -29.3120582989       15.2365213114  MEMB      38              0.0000000000
      5054        44  POPC      C22            -5.8308884971      -27.0190286375       15.0783908396  MEMB      38              0.0000000000
      5055        44  POPC      H2R            -5.1624501885      -26.5735334516       15.8425725744  MEMB      38              0.0000000000
      5056        44  POPC      H2S            -6.8503342121      -26.6074813246       15.2368059165  MEMB      38              0.0000000000
      5057        44  POPC      C3             -7.4082599689      -31.0625569078       15.0929082695  MEMB      38              0.0000000000
      5058        44  POPC      HX             -7.5047808472      -32.1029606525       15.4740573754  MEMB      38              0.0000000000
      5059        44  POPC      HY             -6.4873526696      -31.0629285203       14.4646893008  MEMB      38              0.0000000000
      5060        44  POPC      O31            -8.6154406997      -30.7476926612       14.3612726120  MEMB      38              0.0000000000
      5061        44  POPC      C31            -8.4485142469      -30.0183397752       13.2622702248  MEMB      38              0.0000000000
      5062        44  POPC      O32            -7.3772792057      -29.6348558673       12.8348083514  MEMB      38              0.0000000000
      5063        44  POPC      C32            -9.7934869118      -29.7073186175       12.6167823037  MEMB      38              0.0000000000
      5064        44  POPC      H2X            -9.9145122835      -28.6038711159       12.6492988787  MEMB      38              0.0000000000
      5065        44  POPC      H2Y           -10.6107686909      -30.1688991131       13.2042790331  MEMB      38              0.0000000000
      5066        44  POPC      C23            -5.3269211258      -26.5721563260       13.6844904526  MEMB      38              0.0000000000
      5067        44  POPC      H3R            -4.5512348352      -27.2691345565       13.3052644677  MEMB      38              0.0000000000
      5068        44  POPC      H3S            -4.8494970615      -25.5694584164       13.7943217419  MEMB      38              0.0000000000
      5069        44  POPC      C24            -6.4475239380      -26.4232403101       12.6464587529  MEMB      38              0.0000000000
      5070        44  POPC      H4R            -7.3133325270      -25.8708609280       13.0723678276  MEMB      38              0.0000000000
      5071        44  POPC      H4S            -6.8060465565      -27.4361257514       12.3729510244  MEMB      38              0.0000000000
      5072        44  POPC      C25            -6.0027370091      -25.7250079917       11.3522050101  MEMB      38              0.0000000000
      5073        44  POPC      H5R            -5.0189136877      -26.1390886305       11.0346045130  MEMB      38              0.0000000000
      5074        44  POPC      H5S            -5.8717015573      -24.6361632709       11.5332919010  MEMB      38              0.0000000000
      5075        44  POPC      C26            -7.0117755655      -25.9622233415       10.2177675096  MEMB      38              0.0000000000
      5076        44  POPC      H6R            -8.0087473018      -25.5718317852       10.5212732951  MEMB      38              0.0000000000
      5077        44  POPC      H6S            -7.1041906715      -27.0647687689       10.0909512185  MEMB      38              0.0000000000
      5078        44  POPC      C27            -6.5943317893      -25.3265022285        8.8794319363  MEMB      38              0.0000000000
      5079        44  POPC      H7R            -5.5378757710      -25.6047609371        8.6611663832  MEMB      38              0.0000000000
      5080        44  POPC      H7S            -6.6294000954      -24.2192661063        8.9854498520  MEMB      38              0.0000000000
      5081        44  POPC      C28            -7.4778162069      -25.7442287507        7.6844400497  MEMB      38              0.0000000000
      5082        44  POPC      H8R            -7.1193324619      -25.2022260048        6.7796619588  MEMB      38              0.0000000000
      5083        44  POPC      H8S            -8.5197943350      -25.3989571822        7.8652194016  MEMB      38              0.0000000000
      5084        44  POPC      C29            -7.4550289922      -27.2393537813        7.4821617512  MEMB      38              0.0000000000
      5085        44  POPC      H91            -8.1144877587      -27.8014606384        8.1607097245  MEMB      38              0.0000000000
      5086        44  POPC      C210           -6.7274022035      -27.9256569820        6.5855999178  MEMB      38              0.0000000000
      5087        44  POPC      H101           -6.8045957278      -29.0223726901        6.5654042536  MEMB      38              0.0000000000
      5088        44  POPC      C211           -5.7716297501      -27.3498869117        5.5797234568  MEMB      38              0.0000000000
      5089        44  POPC      H11R           -4.8473224894      -27.9664415456        5.5284838972  MEMB      38              0.0000000000
      5090        44  POPC      H11S           -5.4551038686      -26.3207776700        5.8560999185  MEMB      38              0.0000000000
      5091        44  POPC      C212           -6.4158543001      -27.2918588033        4.1885478059  MEMB      38              0.0000000000
      5092        44  POPC      H12R           -7.3287304716      -26.6538812954        4.2195195279  MEMB      38              0.0000000000
      5093        44  POPC      H12S           -6.7243105740      -28.3082904517        3.8640693629  MEMB      38              0.0000000000
      5094        44  POPC      C213           -5.4498138292      -26.7184043364        3.1507068196  MEMB      38              0.0000000000
      5095        44  POPC      H13R           -4.5759305689      -27.4027994517        3.0597955618  MEMB      38              0.0000000000
      5096        44  POPC      H13S           -5.0909555114      -25.7356393717        3.5211556438  MEMB      38              0.0000000000
      5097        44  POPC      C214           -6.0944318932      -26.5170128329        1.7770412648  MEMB      38              0.0000000000
      5098        44  POPC      H14R           -6.8770421051      -27.2908335978        1.6732500058  MEMB      38              0.0000000000
      5099        44  POPC      H14S           -5.3365414212      -26.6702541913        0.9762386277  MEMB      38              0.0000000000
      5100        44  POPC      C215           -6.7040826994      -25.1232598714        1.6164136827  MEMB      38              0.0000000000
      5101        44  POPC      H15R           -5.8701850859      -24.4052493253        1.4451274213  MEMB      38              0.0000000000
      5102        44  POPC      H15S           -7.1919889333      -24.8315010288        2.5722370657  MEMB      38              0.0000000000
      5103        44  POPC      C216           -7.7207757065      -24.9886213366        0.4689633705  MEMB      38              0.0000000000
      5104        44  POPC      H16R           -7.4134359478      -25.6040345386       -0.4017988136  MEMB      38              0.0000000000
      5105        44  POPC      H16S           -7.6945723473      -23.9279940068        0.1292985278  MEMB      38              0.0000000000
      5106        44  POPC      C217           -9.1667105283      -25.3029027601        0.8934401842  MEMB      38              0.0000000000
      5107        44  POPC      H17R           -9.5046328318      -26.2467163186        0.4120821560  MEMB      38              0.0000000000
      5108        44  POPC      H17S           -9.1851999633      -25.4865591756        1.9922845964  MEMB      38              0.0000000000
      5109        44  POPC      C218          -10.1692867070      -24.1880179983        0.5720027288  MEMB      38              0.0000000000
      5110        44  POPC      H18R          -11.1451483392      -24.3908124412        1.0623427590  MEMB      38              0.0000000000
      5111        44  POPC      H18S          -10.3415517578      -24.1170618436       -0.5210100511  MEMB      38              0.0000000000
      5112        44  POPC      H18T           -9.7955781482      -23.2044180159        0.9319526640  MEMB      38              0.0000000000
      5113        44  POPC      C33            -9.8429259321      -30.1650680791       11.1416988381  MEMB      38              0.0000000000
      5114        44  POPC      H3X            -9.7900850774      -31.2773209216       11.0960314744  MEMB      38              0.0000000000
      5115        44  POPC      H3Y            -8.9662819405      -29.7552580305       10.5893541448  MEMB      38              0.0000000000
      5116        44  POPC      C34           -11.1176759884      -29.6838558299       10.4377150542  MEMB      38              0.0000000000
      5117        44  POPC      H4X           -11.1857599321      -28.5756321617       10.5147740254  MEMB      38              0.0000000000
      5118        44  POPC      H4Y           -11.9855939544      -30.1153973503       10.9808952315  MEMB      38              0.0000000000
      5119        44  POPC      C35           -11.2226192926      -30.0676544697        8.9520875473  MEMB      38              0.0000000000
      5120        44  POPC      H5X           -10.5859090503      -29.3944504927        8.3406760691  MEMB      38              0.0000000000
      5121        44  POPC      H5Y           -12.2764633834      -29.8697721621        8.6408123089  MEMB      38              0.0000000000
      5122        44  POPC      C36           -10.9048879465      -31.5412087423        8.6351183861  MEMB      38              0.0000000000
      5123        44  POPC      H6X           -11.5517783588      -31.8512855433        7.7833156540  MEMB      38              0.0000000000
      5124        44  POPC      H6Y           -11.1933178473      -32.1837405788        9.4955523016  MEMB      38              0.0000000000
      5125        44  POPC      C37            -9.4455099599      -31.8386352037        8.2262793093  MEMB      38              0.0000000000
      5126        44  POPC      H7X            -9.4027673035      -32.9086697516        7.9178182014  MEMB      38              0.0000000000
      5127        44  POPC      H7Y            -8.7616002074      -31.7254782925        9.0949631597  MEMB      38              0.0000000000
      5128        44  POPC      C38            -8.9458769117      -30.9604494138        7.0686250774  MEMB      38              0.0000000000
      5129        44  POPC      H8X            -8.6242860698      -29.9722777979        7.4586270865  MEMB      38              0.0000000000
      5130        44  POPC      H8Y            -9.7913234013      -30.7671502561        6.3812995562  MEMB      38              0.0000000000
      5131        44  POPC      C39            -7.8228971953      -31.5864329979        6.2352491608  MEMB      38              0.0000000000
      5132        44  POPC      H9X            -7.9838106005      -32.6869383958        6.1719351330  MEMB      38              0.0000000000
      5133        44  POPC      H9Y            -6.8474594315      -31.4174555655        6.7376419283  MEMB      38              0.0000000000
      5134        44  POPC      C310           -7.7892197964      -31.0421008959        4.7974943444  MEMB      38              0.0000000000
      5135        44  POPC      H10X           -7.8446441403      -29.9351132215        4.7838723039  MEMB      38              0.0000000000
      5136        44  POPC      H10Y           -8.6839998772      -31.4333189950        4.2725891788  MEMB      38              0.0000000000
      5137        44  POPC      C311           -6.5647770189      -31.5275925457        4.0264114567  MEMB      38              0.0000000000
      5138        44  POPC      H11X           -6.4400623087      -32.5969941046        4.3239856944  MEMB      38              0.0000000000
      5139        44  POPC      H11Y           -5.6564723889      -30.9705307812        4.3401202553  MEMB      38              0.0000000000
      5140        44  POPC      C312           -6.7022382459      -31.5278503051        2.4972429683  MEMB      38              0.0000000000
      5141        44  POPC      H12X           -7.6199165588      -32.0857641789        2.2047779088  MEMB      38              0.0000000000
      5142        44  POPC      H12Y           -5.8215187843      -32.0740846362        2.0974243487  MEMB      38              0.0000000000
      5143        44  POPC      C313           -6.6695712175      -30.1758045435        1.7826597231  MEMB      38              0.0000000000
      5144        44  POPC      H13X           -5.7736425077      -29.6021652325        2.1083450746  MEMB      38              0.0000000000
      5145        44  POPC      H13Y           -7.5721079375      -29.5917537078        2.0567001222  MEMB      38              0.0000000000
      5146        44  POPC      C314           -6.5930641749      -30.4039077203        0.2620945206  MEMB      38              0.0000000000
      5147        44  POPC      H14X           -7.4135824659      -31.0955101773       -0.0407025156  MEMB      38              0.0000000000
      5148        44  POPC      H14Y           -5.6285816629      -30.9079351425        0.0267008626  MEMB      38              0.0000000000
      5149        44  POPC      C315           -6.6994771581      -29.1369149196       -0.5873187123  MEMB      38              0.0000000000
      5150        44  POPC      H15X           -6.5073922895      -29.4081662758       -1.6515793234  MEMB      38              0.0000000000
      5151        44  POPC      H15Y           -5.9063544982      -28.4177528073       -0.2893294087  MEMB      38              0.0000000000
      5152        44  POPC      C316           -8.0740692861      -28.4790529129       -0.4958952623  MEMB      38              0.0000000000
      5153        44  POPC      H16X           -8.1466663575      -27.6274484016       -1.2012005206  MEMB      38              0.0000000000
      5154        44  POPC      H16Y           -8.2894627020      -28.1113107958        0.5249980960  MEMB      38              0.0000000000
      5155        44  POPC      H16Z           -8.8686213263      -29.2115629331       -0.7278074197  MEMB      38              0.0000000000
      5156        45  POPC      N              30.4196137250       -3.5495229722       20.0033939966  MEMB      39              0.0000000000
      5157        45  POPC      C12            29.6472841667       -3.7356276227       18.7104159795  MEMB      39              0.0000000000
      5158        45  POPC      H12A           28.5958882333       -3.8613114410       18.9516820706  MEMB      39              0.0000000000
      5159        45  POPC      H12B           29.9098305380       -4.6717297904       18.2188498560  MEMB      39              0.0000000000
      5160        45  POPC      C13            31.8745562662       -3.3311727554       19.7399358211  MEMB      39              0.0000000000
      5161        45  POPC      H13A           32.3216788052       -4.1383562038       19.1734355597  MEMB      39              0.0000000000
      5162        45  POPC      H13B           31.9968022821       -2.4251573755       19.1355302602  MEMB      39              0.0000000000
      5163        45  POPC      H13C           32.4223891905       -3.1909546421       20.6664878781  MEMB      39              0.0000000000
      5164        45  POPC      C14            29.9139236183       -2.3450091909       20.7322343503  MEMB      39              0.0000000000
      5165        45  POPC      H14A           30.5189025831       -2.1230373237       21.6001185993  MEMB      39              0.0000000000
      5166        45  POPC      H14B           29.9102664677       -1.4813875073       20.0572380699  MEMB      39              0.0000000000
      5167        45  POPC      H14C           28.8824046190       -2.4832862034       21.0185827751  MEMB      39              0.0000000000
      5168        45  POPC      C15            30.2437425023       -4.7543397246       20.8641437556  MEMB      39              0.0000000000
      5169        45  POPC      H15A           30.8897561941       -4.7064424314       21.7240475415  MEMB      39              0.0000000000
      5170        45  POPC      H15B           30.4935374223       -5.6516928122       20.2907864348  MEMB      39              0.0000000000
      5171        45  POPC      H15C           29.2189564226       -4.9096347452       21.2025214216  MEMB      39              0.0000000000
      5172        45  POPC      C11            29.7040379820       -2.5774825088       17.7019824691  MEMB      39              0.0000000000
      5173        45  POPC      H11A           29.2644328966       -2.9043422661       16.7365608427  MEMB      39              0.0000000000
      5174        45  POPC      H11B           30.7651747059       -2.3119206855       17.5110065214  MEMB      39              0.0000000000
      5175        45  POPC      P              29.2656169997        0.0165392377       17.9307313655  MEMB      39              0.0000000000
      5176        45  POPC      O13            28.8707348580        0.7372366816       19.1668263817  MEMB      39              0.0000000000
      5177        45  POPC      O14            28.6499453019        0.3311925304       16.6188156189  MEMB      39              0.0000000000
      5178        45  POPC      O12            28.9356845629       -1.5019691596       18.2129862654  MEMB      39              0.0000000000
      5179        45  POPC      O11            30.8429801983       -0.0579102921       17.7965234013  MEMB      39              0.0000000000
      5180        45  POPC      C1             31.6615763262        0.3389879934       18.8961133540  MEMB      39              0.0000000000
      5181        45  POPC      HA             31.6041023358       -0.3894929472       19.7305192509  MEMB      39              0.0000000000
      5182        45  POPC      HB             31.3305580384        1.3281735190       19.2904282719  MEMB      39              0.0000000000
      5183        45  POPC      C2             33.1575797838        0.4872395826       18.4905655417  MEMB      39              0.0000000000
      5184        45  POPC      HS             33.6548401274        1.0972361716       19.2793654382  MEMB      39              0.0000000000
      5185        45  POPC      O21            33.3936533586        1.1073806163       17.2232079515  MEMB      39              0.0000000000
      5186        45  POPC      C21            32.5497497945        1.9148364015       16.6367314167  MEMB      39              0.0000000000
      5187        45  POPC      O22            31.5858099593        2.4957059244       17.0906352737  MEMB      39              0.0000000000
      5188        45  POPC      C22            32.9997939975        2.0212982578       15.1862747196  MEMB      39              0.0000000000
      5189        45  POPC      H2R            33.4179407185        1.0436737842       14.8686385820  MEMB      39              0.0000000000
      5190        45  POPC      H2S            33.8138046323        2.7650869967       15.1389251604  MEMB      39              0.0000000000
      5191        45  POPC      C3             33.8955378737       -0.8949350588       18.4693726909  MEMB      39              0.0000000000
      5192        45  POPC      HX             33.8692946336       -1.2759381894       19.5099063264  MEMB      39              0.0000000000
      5193        45  POPC      HY             34.9719428387       -0.7427461402       18.2184973497  MEMB      39              0.0000000000
      5194        45  POPC      O31            33.2730443884       -1.8918451332       17.6184142064  MEMB      39              0.0000000000
      5195        45  POPC      C31            33.5760499219       -1.7855883111       16.3287991680  MEMB      39              0.0000000000
      5196        45  POPC      O32            34.4299287507       -1.0777436721       15.8385695909  MEMB      39              0.0000000000
      5197        45  POPC      C32            32.6900116558       -2.7172407639       15.5011295760  MEMB      39              0.0000000000
      5198        45  POPC      H2X            32.1260879803       -3.3930937854       16.1726917225  MEMB      39              0.0000000000
      5199        45  POPC      H2Y            33.3542788177       -3.3347326377       14.8669210116  MEMB      39              0.0000000000
      5200        45  POPC      C23            31.8455493648        2.4035137808       14.2443753518  MEMB      39              0.0000000000
      5201        45  POPC      H3R            31.5032438366        3.4442766414       14.4380472870  MEMB      39              0.0000000000
      5202        45  POPC      H3S            30.9807386553        1.7213925613       14.4269080779  MEMB      39              0.0000000000
      5203        45  POPC      C24            32.3113163864        2.2607362161       12.7966002433  MEMB      39              0.0000000000
      5204        45  POPC      H4R            32.6517028608        1.2088068396       12.6491061758  MEMB      39              0.0000000000
      5205        45  POPC      H4S            33.1852005832        2.9340516603       12.6447670789  MEMB      39              0.0000000000
      5206        45  POPC      C25            31.2224889652        2.5708918707       11.7712279812  MEMB      39              0.0000000000
      5207        45  POPC      H5R            30.9441569721        3.6465236552       11.8326142778  MEMB      39              0.0000000000
      5208        45  POPC      H5S            30.3190797442        1.9688030847       12.0192248373  MEMB      39              0.0000000000
      5209        45  POPC      C26            31.6755383028        2.2270843945       10.3468794543  MEMB      39              0.0000000000
      5210        45  POPC      H6R            30.8175509452        2.3649524973        9.6515524680  MEMB      39              0.0000000000
      5211        45  POPC      H6S            31.9814540980        1.1598524475       10.3211262577  MEMB      39              0.0000000000
      5212        45  POPC      C27            32.8495771164        3.0885125903        9.8671743147  MEMB      39              0.0000000000
      5213        45  POPC      H7R            33.7249881279        2.9880105372       10.5446228866  MEMB      39              0.0000000000
      5214        45  POPC      H7S            32.5182601092        4.1493778590        9.9282536016  MEMB      39              0.0000000000
      5215        45  POPC      C28            33.2657777564        2.7914059272        8.4164324240  MEMB      39              0.0000000000
      5216        45  POPC      H8R            33.7455553762        3.7224258788        8.0497734368  MEMB      39              0.0000000000
      5217        45  POPC      H8S            32.3517014348        2.6425272499        7.7991247906  MEMB      39              0.0000000000
      5218        45  POPC      C29            34.2671782940        1.6743928857        8.2518757585  MEMB      39              0.0000000000
      5219        45  POPC      H91            35.2527103627        1.8965423817        8.6927430430  MEMB      39              0.0000000000
      5220        45  POPC      C210           34.0882043512        0.4793736160        7.6560689763  MEMB      39              0.0000000000
      5221        45  POPC      H101           34.9436541592       -0.2107778004        7.6060915092  MEMB      39              0.0000000000
      5222        45  POPC      C211           32.8316155398       -0.0472324154        7.0102811003  MEMB      39              0.0000000000
      5223        45  POPC      H11R           31.9403671641        0.4027763777        7.5025903477  MEMB      39              0.0000000000
      5224        45  POPC      H11S           32.7769816028       -1.1430041044        7.2018460066  MEMB      39              0.0000000000
      5225        45  POPC      C212           32.6216316560        0.1541142648        5.4946741648  MEMB      39              0.0000000000
      5226        45  POPC      H12R           32.2583977221        1.1852976386        5.3047252119  MEMB      39              0.0000000000
      5227        45  POPC      H12S           31.7891851127       -0.5193230628        5.1891865916  MEMB      39              0.0000000000
      5228        45  POPC      C213           33.8379306381       -0.1261769766        4.5969200302  MEMB      39              0.0000000000
      5229        45  POPC      H13R           34.3600833193       -1.0467993164        4.9358315522  MEMB      39              0.0000000000
      5230        45  POPC      H13S           34.5518675481        0.7233165892        4.6801222076  MEMB      39              0.0000000000
      5231        45  POPC      C214           33.4049196853       -0.3073927791        3.1345382936  MEMB      39              0.0000000000
      5232        45  POPC      H14R           32.6786503611        0.4861444778        2.8610880346  MEMB      39              0.0000000000
      5233        45  POPC      H14S           32.8710078665       -1.2790268347        3.0459216931  MEMB      39              0.0000000000
      5234        45  POPC      C215           34.5412620797       -0.2906140958        2.1066950277  MEMB      39              0.0000000000
      5235        45  POPC      H15R           35.2882192876       -1.0608196442        2.4037437071  MEMB      39              0.0000000000
      5236        45  POPC      H15S           35.0517192632        0.6974459761        2.0933972771  MEMB      39              0.0000000000
      5237        45  POPC      C216           33.9910680186       -0.6281452325        0.7124888715  MEMB      39              0.0000000000
      5238        45  POPC      H16R           33.4695737208        0.2533914206        0.2792721365  MEMB      39              0.0000000000
      5239        45  POPC      H16S           33.2323769416       -1.4363126108        0.8352546143  MEMB      39              0.0000000000
      5240        45  POPC      C217           35.0582770047       -1.1503901861       -0.2517037161  MEMB      39              0.0000000000
      5241        45  POPC      H17R           35.7719976890       -1.7811384252        0.3251892225  MEMB      39              0.0000000000
      5242        45  POPC      H17S           35.6259437956       -0.2902527958       -0.6693312474  MEMB      39              0.0000000000
      5243        45  POPC      C218           34.4900074795       -2.0063045921       -1.3854766192  MEMB      39              0.0000000000
      5244        45  POPC      H18R           35.3024907743       -2.3621173024       -2.0553934815  MEMB      39              0.0000000000
      5245        45  POPC      H18S           33.7607530846       -1.4291801770       -1.9921323770  MEMB      39              0.0000000000
      5246        45  POPC      H18T           33.9744787798       -2.8938959974       -0.9595561726  MEMB      39              0.0000000000
      5247        45  POPC      C33            31.7109871192       -1.9272324461       14.5981640477  MEMB      39              0.0000000000
      5248        45  POPC      H3X            32.2613343438       -1.2241515840       13.9336279067  MEMB      39              0.0000000000
      5249        45  POPC      H3Y            31.0460367783       -1.3093928185       15.2509384479  MEMB      39              0.0000000000
      5250        45  POPC      C34            30.8207341230       -2.8497379014       13.7466884128  MEMB      39              0.0000000000
      5251        45  POPC      H4X            29.9395874969       -2.2723187743       13.3881522492  MEMB      39              0.0000000000
      5252        45  POPC      H4Y            30.4381188719       -3.6665168118       14.4034519728  MEMB      39              0.0000000000
      5253        45  POPC      C35            31.5158579353       -3.4750943770       12.5214504226  MEMB      39              0.0000000000
      5254        45  POPC      H5X            30.8661668299       -4.2885781914       12.1255078753  MEMB      39              0.0000000000
      5255        45  POPC      H5Y            32.4723895659       -3.9458790938       12.8394858436  MEMB      39              0.0000000000
      5256        45  POPC      C36            31.7574602509       -2.5125834554       11.3467643042  MEMB      39              0.0000000000
      5257        45  POPC      H6X            32.3732090235       -3.0491747394       10.5881926491  MEMB      39              0.0000000000
      5258        45  POPC      H6Y            32.3384918512       -1.6229355264       11.6739008315  MEMB      39              0.0000000000
      5259        45  POPC      C37            30.4626922674       -2.0632569547       10.6446557203  MEMB      39              0.0000000000
      5260        45  POPC      H7X            29.9512388429       -1.2997240175       11.2724198837  MEMB      39              0.0000000000
      5261        45  POPC      H7Y            29.7826542938       -2.9364970550       10.5378778523  MEMB      39              0.0000000000
      5262        45  POPC      C38            30.7439945788       -1.4846630182        9.2514995690  MEMB      39              0.0000000000
      5263        45  POPC      H8X            31.2024405038       -2.2695658812        8.6117743121  MEMB      39              0.0000000000
      5264        45  POPC      H8Y            31.5084266614       -0.6863208253        9.3724897020  MEMB      39              0.0000000000
      5265        45  POPC      C39            29.5233667314       -0.8804454090        8.5310964302  MEMB      39              0.0000000000
      5266        45  POPC      H9X            29.8710543572       -0.4317763755        7.5736163967  MEMB      39              0.0000000000
      5267        45  POPC      H9Y            29.1225997449       -0.0479391610        9.1515542737  MEMB      39              0.0000000000
      5268        45  POPC      C310           28.3818907214       -1.8622647019        8.2167355699  MEMB      39              0.0000000000
      5269        45  POPC      H10X           27.5949032146       -1.3239476537        7.6407050552  MEMB      39              0.0000000000
      5270        45  POPC      H10Y           27.9245883109       -2.1887064254        9.1777775524  MEMB      39              0.0000000000
      5271        45  POPC      C311           28.7973175048       -3.1156934764        7.4265439329  MEMB      39              0.0000000000
      5272        45  POPC      H11X           27.9141260490       -3.7896370727        7.3698269549  MEMB      39              0.0000000000
      5273        45  POPC      H11Y           29.5771597866       -3.6635301901        7.9984980466  MEMB      39              0.0000000000
      5274        45  POPC      C312           29.3054496578       -2.8457739994        5.9963687251  MEMB      39              0.0000000000
      5275        45  POPC      H12X           29.4287802213       -1.7540442450        5.8288033144  MEMB      39              0.0000000000
      5276        45  POPC      H12Y           28.5339850054       -3.1980513165        5.2790249010  MEMB      39              0.0000000000
      5277        45  POPC      C313           30.6414021543       -3.5473143951        5.7017713745  MEMB      39              0.0000000000
      5278        45  POPC      H13X           30.5378479653       -4.6329094998        5.9247039178  MEMB      39              0.0000000000
      5279        45  POPC      H13Y           31.4128376147       -3.1331898065        6.3904364236  MEMB      39              0.0000000000
      5280        45  POPC      C314           31.1426245206       -3.3868803694        4.2579005311  MEMB      39              0.0000000000
      5281        45  POPC      H14X           32.1273106321       -3.8990784627        4.1751830827  MEMB      39              0.0000000000
      5282        45  POPC      H14Y           31.2994416667       -2.3091003172        4.0404719816  MEMB      39              0.0000000000
      5283        45  POPC      C315           30.1943809136       -3.9591251674        3.1978241499  MEMB      39              0.0000000000
      5284        45  POPC      H15X           29.3068337267       -3.2907720101        3.1184150713  MEMB      39              0.0000000000
      5285        45  POPC      H15Y           29.8357601086       -4.9557435269        3.5382269657  MEMB      39              0.0000000000
      5286        45  POPC      C316           30.8356178435       -4.1099293502        1.8153912970  MEMB      39              0.0000000000
      5287        45  POPC      H16X           31.3272829444       -3.1653554152        1.5033930400  MEMB      39              0.0000000000
      5288        45  POPC      H16Y           30.0728080883       -4.3851396451        1.0554955859  MEMB      39              0.0000000000
      5289        45  POPC      H16Z           31.6051460266       -4.9083442612        1.8342001680  MEMB      39              0.0000000000
      5290        46  POPC      N              -7.4969254854       30.6103395407       20.2936132515  MEMB      40              0.0000000000
      5291        46  POPC      C12            -7.3604404609       30.4327943947       18.7880918731  MEMB      40              0.0000000000
      5292        46  POPC      H12A           -6.4899308247       30.9806793951       18.4455733311  MEMB      40              0.0000000000
      5293        46  POPC      H12B           -8.2390611316       30.8417073552       18.3125730451  MEMB      40              0.0000000000
      5294        46  POPC      C13            -7.8618268331       32.0042066083       20.6448875286  MEMB      40              0.0000000000
      5295        46  POPC      H13A           -7.8670597390       32.1393234480       21.7186055249  MEMB      40              0.0000000000
      5296        46  POPC      H13B           -7.1527020096       32.7129929207       20.2352749966  MEMB      40              0.0000000000
      5297        46  POPC      H13C           -8.8499762930       32.3155663613       20.2941825492  MEMB      40              0.0000000000
      5298        46  POPC      C14            -8.5097328678       29.6399573665       20.8131994130  MEMB      40              0.0000000000
      5299        46  POPC      H14A           -9.4893577162       29.8077307452       20.3767794341  MEMB      40              0.0000000000
      5300        46  POPC      H14B           -8.1824750086       28.6423972450       20.5279625685  MEMB      40              0.0000000000
      5301        46  POPC      H14C           -8.5947151164       29.6723101681       21.8943599535  MEMB      40              0.0000000000
      5302        46  POPC      C15            -6.1555951608       30.3360766177       20.9141130127  MEMB      40              0.0000000000
      5303        46  POPC      H15A           -5.4478214303       31.1186347203       20.6681267008  MEMB      40              0.0000000000
      5304        46  POPC      H15B           -5.7485635530       29.4094517416       20.4906768478  MEMB      40              0.0000000000
      5305        46  POPC      H15C           -6.2205990191       30.2327946306       21.9814371098  MEMB      40              0.0000000000
      5306        46  POPC      C11            -7.1628142478       28.9911117257       18.2627187969  MEMB      40              0.0000000000
      5307        46  POPC      H11A           -6.9681930072       29.0581841403       17.1625088149  MEMB      40              0.0000000000
      5308        46  POPC      H11B           -8.0962090829       28.3962333852       18.3908604282  MEMB      40              0.0000000000
      5309        46  POPC      P              -5.3870035395       27.0934578628       18.3007950570  MEMB      40              0.0000000000
      5310        46  POPC      O13            -6.5281673062       26.2345710852       17.9021485552  MEMB      40              0.0000000000
      5311        46  POPC      O14            -4.4304921636       26.5542772776       19.2947753897  MEMB      40              0.0000000000
      5312        46  POPC      O12            -6.0763281710       28.3680443829       18.9476697720  MEMB      40              0.0000000000
      5313        46  POPC      O11            -4.6825694974       27.8099233046       17.0843178500  MEMB      40              0.0000000000
      5314        46  POPC      C1             -4.0297141767       29.0866756476       17.1954986023  MEMB      40              0.0000000000
      5315        46  POPC      HA             -2.9570865851       28.9017793520       17.4437465264  MEMB      40              0.0000000000
      5316        46  POPC      HB             -4.4489796689       29.7489237670       17.9833947300  MEMB      40              0.0000000000
      5317        46  POPC      C2             -4.0737407004       29.8318945991       15.8279778277  MEMB      40              0.0000000000
      5318        46  POPC      HS             -3.2256977443       30.5351646100       15.7714737972  MEMB      40              0.0000000000
      5319        46  POPC      O21            -5.3071440921       30.5648376745       15.6543724327  MEMB      40              0.0000000000
      5320        46  POPC      C21            -5.3236516702       31.4673393926       14.6624789676  MEMB      40              0.0000000000
      5321        46  POPC      O22            -4.5826701269       32.4282344246       14.5809364240  MEMB      40              0.0000000000
      5322        46  POPC      C22            -6.4498366602       31.1117402980       13.6886339119  MEMB      40              0.0000000000
      5323        46  POPC      H2R            -5.9681236646       30.8522469945       12.7253709899  MEMB      40              0.0000000000
      5324        46  POPC      H2S            -7.0814363175       32.0048007508       13.5213576260  MEMB      40              0.0000000000
      5325        46  POPC      C3             -3.8771353568       28.7323441800       14.7503124070  MEMB      40              0.0000000000
      5326        46  POPC      HX             -4.7734118349       28.0701478084       14.7429806524  MEMB      40              0.0000000000
      5327        46  POPC      HY             -3.0130326520       28.1143284496       15.1151279246  MEMB      40              0.0000000000
      5328        46  POPC      O31            -3.6130645655       29.2694929934       13.4375689457  MEMB      40              0.0000000000
      5329        46  POPC      C31            -3.2904646676       28.2529216478       12.6225243358  MEMB      40              0.0000000000
      5330        46  POPC      O32            -3.3483879034       27.0769953237       12.9240469112  MEMB      40              0.0000000000
      5331        46  POPC      C32            -2.7072839907       28.7816171494       11.3065854587  MEMB      40              0.0000000000
      5332        46  POPC      H2X            -1.8646666547       28.0943109178       11.0694394026  MEMB      40              0.0000000000
      5333        46  POPC      H2Y            -2.2975268155       29.7976149492       11.4671383423  MEMB      40              0.0000000000
      5334        46  POPC      C23            -7.2907857024       29.9072940642       14.1881605881  MEMB      40              0.0000000000
      5335        46  POPC      H3R            -7.7840822648       30.1731320242       15.1426548183  MEMB      40              0.0000000000
      5336        46  POPC      H3S            -6.6280199384       29.0540676367       14.4307008552  MEMB      40              0.0000000000
      5337        46  POPC      C24            -8.3612716274       29.4238307521       13.2073841047  MEMB      40              0.0000000000
      5338        46  POPC      H4R            -8.8299261804       30.3053253340       12.7146116151  MEMB      40              0.0000000000
      5339        46  POPC      H4S            -9.1522673914       28.8902780497       13.7846942998  MEMB      40              0.0000000000
      5340        46  POPC      C25            -7.8217156432       28.4656711050       12.1411452164  MEMB      40              0.0000000000
      5341        46  POPC      H5R            -7.0136009028       28.9784766315       11.5788722162  MEMB      40              0.0000000000
      5342        46  POPC      H5S            -8.6448889895       28.2577948777       11.4197721314  MEMB      40              0.0000000000
      5343        46  POPC      C26            -7.2884702534       27.1242899996       12.6834008794  MEMB      40              0.0000000000
      5344        46  POPC      H6R            -8.1493901335       26.5014822473       13.0082578917  MEMB      40              0.0000000000
      5345        46  POPC      H6S            -6.6317203922       27.2622565183       13.5665130294  MEMB      40              0.0000000000
      5346        46  POPC      C27            -6.4612915853       26.3481640191       11.6488471131  MEMB      40              0.0000000000
      5347        46  POPC      H7R            -6.1745844625       25.3608374804       12.0767649857  MEMB      40              0.0000000000
      5348        46  POPC      H7S            -5.5206633098       26.9126346425       11.4677197735  MEMB      40              0.0000000000
      5349        46  POPC      C28            -7.2036207689       26.1964356035       10.3196301309  MEMB      40              0.0000000000
      5350        46  POPC      H8R            -7.4718059727       27.2114733743        9.9626836399  MEMB      40              0.0000000000
      5351        46  POPC      H8S            -8.1562954814       25.6582505909       10.4977561269  MEMB      40              0.0000000000
      5352        46  POPC      C29            -6.3891514797       25.4776371280        9.2865259892  MEMB      40              0.0000000000
      5353        46  POPC      H91            -5.7106355158       24.6969083774        9.6642531392  MEMB      40              0.0000000000
      5354        46  POPC      C210           -6.4578777217       25.7187287743        7.9710814008  MEMB      40              0.0000000000
      5355        46  POPC      H101           -5.8309150532       25.1226742095        7.2912510819  MEMB      40              0.0000000000
      5356        46  POPC      C211           -7.3475769347       26.7375075126        7.3049949835  MEMB      40              0.0000000000
      5357        46  POPC      H11R           -6.7115328159       27.3358390607        6.6321441446  MEMB      40              0.0000000000
      5358        46  POPC      H11S           -7.7952367011       27.4723091144        8.0078442113  MEMB      40              0.0000000000
      5359        46  POPC      C212           -8.4990302338       26.1030782188        6.5066404842  MEMB      40              0.0000000000
      5360        46  POPC      H12R           -9.2152600703       25.6306280859        7.2168429710  MEMB      40              0.0000000000
      5361        46  POPC      H12S           -8.1034642548       25.2906336490        5.8574004191  MEMB      40              0.0000000000
      5362        46  POPC      C213           -9.2586795332       27.1210849371        5.6333443960  MEMB      40              0.0000000000
      5363        46  POPC      H13R           -9.8403330109       27.7960756122        6.3019880909  MEMB      40              0.0000000000
      5364        46  POPC      H13S           -9.9856731675       26.5681760145        5.0008510931  MEMB      40              0.0000000000
      5365        46  POPC      C214           -8.3667987801       27.9991705368        4.7346758505  MEMB      40              0.0000000000
      5366        46  POPC      H14R           -7.7603299661       28.6654493199        5.3876612644  MEMB      40              0.0000000000
      5367        46  POPC      H14S           -9.0056038617       28.6663035696        4.1144744998  MEMB      40              0.0000000000
      5368        46  POPC      C215           -7.4207070567       27.2117829585        3.8126523249  MEMB      40              0.0000000000
      5369        46  POPC      H15R           -7.9562623548       27.0168554860        2.8560880106  MEMB      40              0.0000000000
      5370        46  POPC      H15S           -7.1767444079       26.2235955685        4.2406226461  MEMB      40              0.0000000000
      5371        46  POPC      C216           -6.1105203613       27.9615001216        3.5213665514  MEMB      40              0.0000000000
      5372        46  POPC      H16R           -6.3857269273       29.0203143458        3.3377786645  MEMB      40              0.0000000000
      5373        46  POPC      H16S           -5.6672509810       27.5673890374        2.5840277231  MEMB      40              0.0000000000
      5374        46  POPC      C217           -5.0315274035       27.9427127839        4.6271722575  MEMB      40              0.0000000000
      5375        46  POPC      H17R           -5.4111355721       28.5316953035        5.4914949080  MEMB      40              0.0000000000
      5376        46  POPC      H17S           -4.1393264091       28.4834112437        4.2439574367  MEMB      40              0.0000000000
      5377        46  POPC      C218           -4.5418329686       26.5782617819        5.1248626548  MEMB      40              0.0000000000
      5378        46  POPC      H18R           -5.3881823354       25.8941700146        5.3295194479  MEMB      40              0.0000000000
      5379        46  POPC      H18S           -3.9568154250       26.7046241240        6.0614019181  MEMB      40              0.0000000000
      5380        46  POPC      H18T           -3.8820986652       26.0975305462        4.3768171403  MEMB      40              0.0000000000
      5381        46  POPC      C33            -3.6605094375       28.8019190572       10.0870020165  MEMB      40              0.0000000000
      5382        46  POPC      H3X            -4.2519560852       27.8670427810        9.9920844227  MEMB      40              0.0000000000
      5383        46  POPC      H3Y            -3.0189899053       28.8659077243        9.1739155269  MEMB      40              0.0000000000
      5384        46  POPC      C34            -4.5672215275       30.0373160115       10.0661568629  MEMB      40              0.0000000000
      5385        46  POPC      H4X            -3.9486177545       30.9361826364       10.2821712853  MEMB      40              0.0000000000
      5386        46  POPC      H4Y            -5.3256623780       29.9598191744       10.8690352212  MEMB      40              0.0000000000
      5387        46  POPC      C35            -5.2685531388       30.2207338618        8.7136184977  MEMB      40              0.0000000000
      5388        46  POPC      H5X            -5.9013861270       29.3246927399        8.5165656703  MEMB      40              0.0000000000
      5389        46  POPC      H5Y            -4.4976590323       30.2505341117        7.9153202693  MEMB      40              0.0000000000
      5390        46  POPC      C36            -6.1526110212       31.4777610479        8.6187695043  MEMB      40              0.0000000000
      5391        46  POPC      H6X            -7.0100520024       31.3543165700        9.3204960916  MEMB      40              0.0000000000
      5392        46  POPC      H6Y            -6.5902732011       31.5278151949        7.5978754818  MEMB      40              0.0000000000
      5393        46  POPC      C37            -5.4732526956       32.8262451511        8.9499513439  MEMB      40              0.0000000000
      5394        46  POPC      H7X            -5.3892433857       32.8812855620       10.0602099254  MEMB      40              0.0000000000
      5395        46  POPC      H7Y            -6.1533205944       33.6505438892        8.6399851455  MEMB      40              0.0000000000
      5396        46  POPC      C38            -4.0613647509       33.1051779970        8.3858576084  MEMB      40              0.0000000000
      5397        46  POPC      H8X            -3.3591775489       32.2897164750        8.6569129797  MEMB      40              0.0000000000
      5398        46  POPC      H8Y            -3.6984884862       34.0252635852        8.9051797716  MEMB      40              0.0000000000
      5399        46  POPC      C39            -3.9619322510       33.3771289976        6.8738196331  MEMB      40              0.0000000000
      5400        46  POPC      H9X            -2.9557940013       33.8100755775        6.6659471487  MEMB      40              0.0000000000
      5401        46  POPC      H9Y            -4.7157259565       34.1374114782        6.5780786497  MEMB      40              0.0000000000
      5402        46  POPC      C310           -4.1159160175       32.1148937750        6.0199612138  MEMB      40              0.0000000000
      5403        46  POPC      H10X           -5.1468623071       31.7256076943        6.1531542274  MEMB      40              0.0000000000
      5404        46  POPC      H10Y           -3.4089799882       31.3290936458        6.3653295676  MEMB      40              0.0000000000
      5405        46  POPC      C311           -3.9071298539       32.3493934158        4.5267504469  MEMB      40              0.0000000000
      5406        46  POPC      H11X           -2.8394376609       32.5310481483        4.2964710539  MEMB      40              0.0000000000
      5407        46  POPC      H11Y           -4.4429592182       33.2733721954        4.2354953174  MEMB      40              0.0000000000
      5408        46  POPC      C312           -4.4471712643       31.1784693065        3.6994685844  MEMB      40              0.0000000000
      5409        46  POPC      H12X           -5.3342948644       30.7446191391        4.2120989035  MEMB      40              0.0000000000
      5410        46  POPC      H12Y           -3.6765773758       30.3913297186        3.6150617050  MEMB      40              0.0000000000
      5411        46  POPC      C313           -4.8726243141       31.6217922023        2.3098416486  MEMB      40              0.0000000000
      5412        46  POPC      H13X           -4.0468975754       32.2120634552        1.8565715524  MEMB      40              0.0000000000
      5413        46  POPC      H13Y           -5.7597210903       32.2746587086        2.4450257522  MEMB      40              0.0000000000
      5414        46  POPC      C314           -5.2678556426       30.5006834226        1.3499959024  MEMB      40              0.0000000000
      5415        46  POPC      H14X           -6.2711686023       30.1121322549        1.6324673631  MEMB      40              0.0000000000
      5416        46  POPC      H14Y           -4.5348087907       29.6650976568        1.3928135280  MEMB      40              0.0000000000
      5417        46  POPC      C315           -5.3688553214       31.0316255494       -0.0753844422  MEMB      40              0.0000000000
      5418        46  POPC      H15X           -5.8602907304       30.2616578916       -0.7089557742  MEMB      40              0.0000000000
      5419        46  POPC      H15Y           -4.3328123022       31.1779526618       -0.4585940550  MEMB      40              0.0000000000
      5420        46  POPC      C316           -6.1301533870       32.3609069599       -0.1648888044  MEMB      40              0.0000000000
      5421        46  POPC      H16X           -5.5225915993       33.1834190017        0.2619488315  MEMB      40              0.0000000000
      5422        46  POPC      H16Y           -7.0941926165       32.3048398203        0.3839293534  MEMB      40              0.0000000000
      5423        46  POPC      H16Z           -6.3472925819       32.6377761548       -1.2129722006  MEMB      40              0.0000000000
      5424        47  POPC      N              21.3077960200      -24.2537273463       19.1041885821  MEMB      41              0.0000000000
      5425        47  POPC      C12            20.2766974876      -23.3835784179       18.4062805338  MEMB      41              0.0000000000
      5426        47  POPC      H12A           19.3402004159      -23.4291040016       18.9551689103  MEMB      41              0.0000000000
      5427        47  POPC      H12B           20.1237050055      -23.7809708007       17.4156842424  MEMB      41              0.0000000000
      5428        47  POPC      C13            21.2216480271      -24.0517560075       20.5723992632  MEMB      41              0.0000000000
      5429        47  POPC      H13A           22.0928546481      -24.4536765939       21.0762228120  MEMB      41              0.0000000000
      5430        47  POPC      H13B           21.1946758658      -22.9822594100       20.8022311222  MEMB      41              0.0000000000
      5431        47  POPC      H13C           20.3297626345      -24.5028190416       20.9662846345  MEMB      41              0.0000000000
      5432        47  POPC      C14            21.1604303507      -25.7211120120       18.8690270380  MEMB      41              0.0000000000
      5433        47  POPC      H14A           20.2114673201      -26.0908344376       19.2244701664  MEMB      41              0.0000000000
      5434        47  POPC      H14B           21.2947828068      -25.9696956311       17.8218762313  MEMB      41              0.0000000000
      5435        47  POPC      H14C           21.9526308285      -26.2557020098       19.3989093987  MEMB      41              0.0000000000
      5436        47  POPC      C15            22.6620155376      -23.8131190840       18.6680196100  MEMB      41              0.0000000000
      5437        47  POPC      H15A           22.8739995736      -24.0276783478       17.6287314554  MEMB      41              0.0000000000
      5438        47  POPC      H15B           23.4605736389      -24.2849798224       19.2456574414  MEMB      41              0.0000000000
      5439        47  POPC      H15C           22.7783274581      -22.7422126732       18.8284094684  MEMB      41              0.0000000000
      5440        47  POPC      C11            20.5492385916      -21.8532731996       18.1839772275  MEMB      41              0.0000000000
      5441        47  POPC      H11A           19.6813840741      -21.4117290769       17.6352319941  MEMB      41              0.0000000000
      5442        47  POPC      H11B           21.4228687242      -21.7438229928       17.5047162425  MEMB      41              0.0000000000
      5443        47  POPC      P              19.6474233250      -20.8188993651       20.4194827675  MEMB      41              0.0000000000
      5444        47  POPC      O13            19.1239597776      -19.4352154320       20.2768661213  MEMB      41              0.0000000000
      5445        47  POPC      O14            20.0919182736      -21.2871439034       21.7549630725  MEMB      41              0.0000000000
      5446        47  POPC      O12            20.8021157582      -21.1132805507       19.3755691545  MEMB      41              0.0000000000
      5447        47  POPC      O11            18.5232155059      -21.8395701663       19.9529246617  MEMB      41              0.0000000000
      5448        47  POPC      C1             17.1268273793      -21.5559398470       20.1482984024  MEMB      41              0.0000000000
      5449        47  POPC      HA             16.9436141594      -20.6364992943       20.7509356488  MEMB      41              0.0000000000
      5450        47  POPC      HB             16.6958017956      -22.3868001605       20.7481770043  MEMB      41              0.0000000000
      5451        47  POPC      C2             16.2550639481      -21.4920877795       18.8352247261  MEMB      41              0.0000000000
      5452        47  POPC      HS             15.2274072534      -21.8237523323       19.1207917454  MEMB      41              0.0000000000
      5453        47  POPC      O21            16.7592803071      -22.3200255789       17.7766759243  MEMB      41              0.0000000000
      5454        47  POPC      C21            16.8997272134      -23.6030928878       17.9942349760  MEMB      41              0.0000000000
      5455        47  POPC      O22            16.5494884226      -24.2362641178       18.9743682722  MEMB      41              0.0000000000
      5456        47  POPC      C22            17.5398578997      -24.2085739457       16.7470532560  MEMB      41              0.0000000000
      5457        47  POPC      H2R            17.5364716570      -25.3012321079       16.8812751733  MEMB      41              0.0000000000
      5458        47  POPC      H2S            18.5877534611      -23.8891483203       16.6689516255  MEMB      41              0.0000000000
      5459        47  POPC      C3             16.0983344795      -20.0345670145       18.2722853357  MEMB      41              0.0000000000
      5460        47  POPC      HX             16.4125770478      -19.3397586372       19.0783686603  MEMB      41              0.0000000000
      5461        47  POPC      HY             15.0077000066      -19.8564241322       18.1186655540  MEMB      41              0.0000000000
      5462        47  POPC      O31            16.8845758766      -19.7454527025       17.0856048155  MEMB      41              0.0000000000
      5463        47  POPC      C31            16.2275972445      -19.4246972594       15.9737720497  MEMB      41              0.0000000000
      5464        47  POPC      O32            15.0325799971      -19.4471759413       15.8047571241  MEMB      41              0.0000000000
      5465        47  POPC      C32            17.2121474698      -18.9177082040       14.9305208056  MEMB      41              0.0000000000
      5466        47  POPC      H2X            17.7249135636      -19.7814757863       14.4661921748  MEMB      41              0.0000000000
      5467        47  POPC      H2Y            17.9661727998      -18.2960520279       15.4494324273  MEMB      41              0.0000000000
      5468        47  POPC      C23            16.8214189936      -23.7708785738       15.4504194037  MEMB      41              0.0000000000
      5469        47  POPC      H3R            15.7684753738      -23.4737731196       15.6666174712  MEMB      41              0.0000000000
      5470        47  POPC      H3S            16.7494505387      -24.6089931219       14.7262333810  MEMB      41              0.0000000000
      5471        47  POPC      C24            17.5468654732      -22.5977026693       14.7776372278  MEMB      41              0.0000000000
      5472        47  POPC      H4R            17.7059222203      -21.7899013754       15.5238446420  MEMB      41              0.0000000000
      5473        47  POPC      H4S            16.8685769206      -22.1984611099       14.0032713321  MEMB      41              0.0000000000
      5474        47  POPC      C25            18.8821040525      -22.9369630449       14.0954522441  MEMB      41              0.0000000000
      5475        47  POPC      H5R            19.6680160551      -23.0995140656       14.8661532472  MEMB      41              0.0000000000
      5476        47  POPC      H5S            19.1890207604      -22.0591470929       13.4795969658  MEMB      41              0.0000000000
      5477        47  POPC      C26            18.8172621315      -24.1707869998       13.1878700639  MEMB      41              0.0000000000
      5478        47  POPC      H6R            18.7011495076      -25.0913667514       13.8028920545  MEMB      41              0.0000000000
      5479        47  POPC      H6S            19.7915948923      -24.2634481093       12.6574179557  MEMB      41              0.0000000000
      5480        47  POPC      C27            17.6691210419      -24.1145822763       12.1645956609  MEMB      41              0.0000000000
      5481        47  POPC      H7R            17.1545887730      -23.1313055997       12.2179161955  MEMB      41              0.0000000000
      5482        47  POPC      H7S            16.9116261804      -24.8956154025       12.4053498863  MEMB      41              0.0000000000
      5483        47  POPC      C28            18.1346108208      -24.2569221685       10.7154930910  MEMB      41              0.0000000000
      5484        47  POPC      H8R            18.8137997448      -23.4050075326       10.4951903793  MEMB      41              0.0000000000
      5485        47  POPC      H8S            17.2463398124      -24.1470859018       10.0526409725  MEMB      41              0.0000000000
      5486        47  POPC      C29            18.7788588550      -25.5947608937       10.4832078068  MEMB      41              0.0000000000
      5487        47  POPC      H91            18.1828109935      -26.4525040423       10.8355233295  MEMB      41              0.0000000000
      5488        47  POPC      C210           19.9903094371      -25.8248755045        9.9563163398  MEMB      41              0.0000000000
      5489        47  POPC      H101           20.2699928395      -26.8698985730        9.7731179734  MEMB      41              0.0000000000
      5490        47  POPC      C211           20.9916309574      -24.8060856074        9.4729368493  MEMB      41              0.0000000000
      5491        47  POPC      H11R           21.8722401698      -24.7870454508       10.1530029737  MEMB      41              0.0000000000
      5492        47  POPC      H11S           20.5715689246      -23.7759705288        9.4607562563  MEMB      41              0.0000000000
      5493        47  POPC      C212           21.4837101415      -25.1168414697        8.0490577837  MEMB      41              0.0000000000
      5494        47  POPC      H12R           22.0631188994      -26.0666638896        8.0317236220  MEMB      41              0.0000000000
      5495        47  POPC      H12S           22.1702590349      -24.2991869919        7.7454194535  MEMB      41              0.0000000000
      5496        47  POPC      C213           20.3387158546      -25.2070434745        7.0380395373  MEMB      41              0.0000000000
      5497        47  POPC      H13R           19.5813715470      -24.4273929743        7.2755183473  MEMB      41              0.0000000000
      5498        47  POPC      H13S           19.8484253582      -26.1963741266        7.1620008986  MEMB      41              0.0000000000
      5499        47  POPC      C214           20.7699512849      -25.0573003722        5.5749525333  MEMB      41              0.0000000000
      5500        47  POPC      H14R           19.9234292876      -25.3716629290        4.9323768509  MEMB      41              0.0000000000
      5501        47  POPC      H14S           21.6149713444      -25.7376440817        5.3477632160  MEMB      41              0.0000000000
      5502        47  POPC      C215           21.0897162334      -23.6123684950        5.1829372923  MEMB      41              0.0000000000
      5503        47  POPC      H15R           22.0598624666      -23.2977410041        5.6216675661  MEMB      41              0.0000000000
      5504        47  POPC      H15S           20.2988447201      -22.9506084684        5.5949237369  MEMB      41              0.0000000000
      5505        47  POPC      C216           21.0904310514      -23.4076885210        3.6670797999  MEMB      41              0.0000000000
      5506        47  POPC      H16R           20.0451211903      -23.5050433328        3.2930879723  MEMB      41              0.0000000000
      5507        47  POPC      H16S           21.6917134399      -24.2042204575        3.1774646107  MEMB      41              0.0000000000
      5508        47  POPC      C217           21.6472438422      -22.0397887017        3.2733693517  MEMB      41              0.0000000000
      5509        47  POPC      H17R           22.7396000345      -22.0371756193        3.4890526794  MEMB      41              0.0000000000
      5510        47  POPC      H17S           21.1774892914      -21.2515191019        3.9062300276  MEMB      41              0.0000000000
      5511        47  POPC      C218           21.3970634606      -21.7099392054        1.8062475837  MEMB      41              0.0000000000
      5512        47  POPC      H18R           21.9558241592      -20.8056465835        1.4904063704  MEMB      41              0.0000000000
      5513        47  POPC      H18S           20.3169994256      -21.5186780252        1.6444733812  MEMB      41              0.0000000000
      5514        47  POPC      H18T           21.6979467355      -22.5566115853        1.1533446821  MEMB      41              0.0000000000
      5515        47  POPC      C33            16.4964759297      -18.0741575256       13.8583022424  MEMB      41              0.0000000000
      5516        47  POPC      H3X            15.7862894301      -17.3483692802       14.3189467187  MEMB      41              0.0000000000
      5517        47  POPC      H3Y            15.8840762996      -18.7466976448       13.2204708933  MEMB      41              0.0000000000
      5518        47  POPC      C34            17.5109314986      -17.2894517104       13.0280055192  MEMB      41              0.0000000000
      5519        47  POPC      H4X            18.4560334255      -17.8738038340       12.9696649808  MEMB      41              0.0000000000
      5520        47  POPC      H4Y            17.7376233071      -16.3385025708       13.5590584069  MEMB      41              0.0000000000
      5521        47  POPC      C35            17.0295808664      -16.9876426146       11.6119369567  MEMB      41              0.0000000000
      5522        47  POPC      H5X            17.7136238277      -16.2499918439       11.1350404268  MEMB      41              0.0000000000
      5523        47  POPC      H5Y            16.0178440282      -16.5258402023       11.6618495372  MEMB      41              0.0000000000
      5524        47  POPC      C36            16.9860773263      -18.2388810374       10.7313174886  MEMB      41              0.0000000000
      5525        47  POPC      H6X            16.5695802490      -17.9338456558        9.7523086398  MEMB      41              0.0000000000
      5526        47  POPC      H6Y            16.2918604926      -19.0037078448       11.1448039093  MEMB      41              0.0000000000
      5527        47  POPC      C37            18.3617949103      -18.8662599353       10.4761650672  MEMB      41              0.0000000000
      5528        47  POPC      H7X            18.4467348885      -19.7881356285       11.0951712015  MEMB      41              0.0000000000
      5529        47  POPC      H7Y            19.1768086377      -18.1767807067       10.7877824944  MEMB      41              0.0000000000
      5530        47  POPC      C38            18.5373310414      -19.2119314759        8.9930264528  MEMB      41              0.0000000000
      5531        47  POPC      H8X            18.8957449145      -18.3239927972        8.4286194353  MEMB      41              0.0000000000
      5532        47  POPC      H8Y            17.5304214451      -19.4570640804        8.5891456836  MEMB      41              0.0000000000
      5533        47  POPC      C39            19.4587604870      -20.4117726957        8.7577457822  MEMB      41              0.0000000000
      5534        47  POPC      H9X            19.3936146830      -21.1088191455        9.6247182607  MEMB      41              0.0000000000
      5535        47  POPC      H9Y            20.5120149043      -20.0606586014        8.6920128733  MEMB      41              0.0000000000
      5536        47  POPC      C310           19.0832022211      -21.2076375766        7.4991945217  MEMB      41              0.0000000000
      5537        47  POPC      H10X           19.9100047089      -21.9243763191        7.3063526561  MEMB      41              0.0000000000
      5538        47  POPC      H10Y           19.0181606854      -20.5143592386        6.6335810075  MEMB      41              0.0000000000
      5539        47  POPC      C311           17.7786177717      -22.0076044167        7.6730798062  MEMB      41              0.0000000000
      5540        47  POPC      H11X           16.9614842745      -21.3410950843        8.0246659150  MEMB      41              0.0000000000
      5541        47  POPC      H11Y           17.9392815326      -22.7682390794        8.4657423215  MEMB      41              0.0000000000
      5542        47  POPC      C312           17.2721249073      -22.7195418530        6.4116234852  MEMB      41              0.0000000000
      5543        47  POPC      H12X           16.3406629534      -23.2674170803        6.6809175392  MEMB      41              0.0000000000
      5544        47  POPC      H12Y           18.0088330104      -23.4753182692        6.0647851060  MEMB      41              0.0000000000
      5545        47  POPC      C313           16.9575479262      -21.7592306247        5.2632504976  MEMB      41              0.0000000000
      5546        47  POPC      H13X           17.9113160594      -21.4226899431        4.7975810715  MEMB      41              0.0000000000
      5547        47  POPC      H13Y           16.4363877691      -20.8578914346        5.6582471590  MEMB      41              0.0000000000
      5548        47  POPC      C314           16.0749576198      -22.4067954872        4.1931119622  MEMB      41              0.0000000000
      5549        47  POPC      H14X           15.0615362124      -22.5960700371        4.6103135669  MEMB      41              0.0000000000
      5550        47  POPC      H14Y           16.5030439426      -23.3960195799        3.9119265006  MEMB      41              0.0000000000
      5551        47  POPC      C315           15.9720410489      -21.5312111523        2.9437622816  MEMB      41              0.0000000000
      5552        47  POPC      H15X           16.9613348107      -21.5427568558        2.4390834595  MEMB      41              0.0000000000
      5553        47  POPC      H15Y           15.7694046277      -20.4769282141        3.2414069576  MEMB      41              0.0000000000
      5554        47  POPC      C316           14.8879972776      -21.9944643121        1.9769961780  MEMB      41              0.0000000000
      5555        47  POPC      H16X           13.8910951259      -21.7290593977        2.3840984315  MEMB      41              0.0000000000
      5556        47  POPC      H16Y           14.9175936548      -23.0952093778        1.8468086008  MEMB      41              0.0000000000
      5557        47  POPC      H16Z           14.9997284722      -21.5089537442        0.9857205379  MEMB      41              0.0000000000
      5558        48  POPC      N             -25.3394894994      -13.8899670820       17.8831518537  MEMB      42              0.0000000000
      5559        48  POPC      C12           -25.6646431161      -12.6479831510       18.7030624288  MEMB      42              0.0000000000
      5560        48  POPC      H12A          -26.7105086480      -12.3555073279       18.5281480682  MEMB      42              0.0000000000
      5561        48  POPC      H12B          -25.0775103489      -11.8126222364       18.3617742738  MEMB      42              0.0000000000
      5562        48  POPC      C13           -23.9639073415      -14.4052169907       18.1702524448  MEMB      42              0.0000000000
      5563        48  POPC      H13A          -23.8301539032      -15.3831330722       17.7088999251  MEMB      42              0.0000000000
      5564        48  POPC      H13B          -23.2050410772      -13.7406159703       17.7847133883  MEMB      42              0.0000000000
      5565        48  POPC      H13C          -23.8608540632      -14.5235295045       19.2437145297  MEMB      42              0.0000000000
      5566        48  POPC      C14           -26.3087416547      -14.9641375763       18.2802300011  MEMB      42              0.0000000000
      5567        48  POPC      H14A          -26.3073347971      -15.1039135432       19.3599374959  MEMB      42              0.0000000000
      5568        48  POPC      H14B          -27.3424169870      -14.6732589608       18.0834974779  MEMB      42              0.0000000000
      5569        48  POPC      H14C          -26.1286266097      -15.8982884581       17.7788284735  MEMB      42              0.0000000000
      5570        48  POPC      C15           -25.4878307622      -13.6228196614       16.4225225916  MEMB      42              0.0000000000
      5571        48  POPC      H15A          -25.3971966603      -14.5494171415       15.8668593034  MEMB      42              0.0000000000
      5572        48  POPC      H15B          -24.7518603186      -12.9251590746       16.0446639625  MEMB      42              0.0000000000
      5573        48  POPC      H15C          -26.4686798476      -13.2123889121       16.2094791693  MEMB      42              0.0000000000
      5574        48  POPC      C11           -25.5174301373      -12.7550085420       20.2445896321  MEMB      42              0.0000000000
      5575        48  POPC      H11A          -25.5807301562      -11.7250996183       20.6809734657  MEMB      42              0.0000000000
      5576        48  POPC      H11B          -24.5052489309      -13.1324738129       20.4982303218  MEMB      42              0.0000000000
      5577        48  POPC      P             -27.9538789392      -13.0410097349       21.0827099970  MEMB      42              0.0000000000
      5578        48  POPC      O13           -27.8249039211      -11.9734899166       22.1074356662  MEMB      42              0.0000000000
      5579        48  POPC      O14           -28.8891564371      -14.1673716266       21.3505828364  MEMB      42              0.0000000000
      5580        48  POPC      O12           -26.4924233150      -13.6343935443       20.8180171112  MEMB      42              0.0000000000
      5581        48  POPC      O11           -28.2467151013      -12.4059540475       19.6667919306  MEMB      42              0.0000000000
      5582        48  POPC      C1            -29.6063044533      -12.2865173514       19.3189779794  MEMB      42              0.0000000000
      5583        48  POPC      HA            -30.1521302294      -11.6796632699       20.0834922695  MEMB      42              0.0000000000
      5584        48  POPC      HB            -30.1006813436      -13.2836029337       19.2732783418  MEMB      42              0.0000000000
      5585        48  POPC      C2            -29.7898526405      -11.5458065892       17.9801309632  MEMB      42              0.0000000000
      5586        48  POPC      HS            -30.8819719015      -11.3628519179       17.9267039540  MEMB      42              0.0000000000
      5587        48  POPC      O21           -29.3657317484      -12.2041019062       16.7650428054  MEMB      42              0.0000000000
      5588        48  POPC      C21           -29.1719004182      -13.5082764271       16.6429981803  MEMB      42              0.0000000000
      5589        48  POPC      O22           -29.1131660128      -14.3540339435       17.5060271187  MEMB      42              0.0000000000
      5590        48  POPC      C22           -28.9771106582      -13.8636903853       15.1748683414  MEMB      42              0.0000000000
      5591        48  POPC      H2R           -27.9647763597      -14.3143404969       15.1052277857  MEMB      42              0.0000000000
      5592        48  POPC      H2S           -29.0247539197      -12.9532558233       14.5485626424  MEMB      42              0.0000000000
      5593        48  POPC      C3            -29.0823044634      -10.1557973588       18.0065973481  MEMB      42              0.0000000000
      5594        48  POPC      HX            -29.2999910579       -9.6815251948       18.9869903101  MEMB      42              0.0000000000
      5595        48  POPC      HY            -29.6039621543       -9.5551869575       17.2228726116  MEMB      42              0.0000000000
      5596        48  POPC      O31           -27.6407147580      -10.2200785179       17.8513182160  MEMB      42              0.0000000000
      5597        48  POPC      C31           -27.1473835324       -9.3430399843       16.9842142556  MEMB      42              0.0000000000
      5598        48  POPC      O32           -27.7970885960       -8.6381880193       16.2427766814  MEMB      42              0.0000000000
      5599        48  POPC      C32           -25.6491169507       -9.4977590112       16.9068563391  MEMB      42              0.0000000000
      5600        48  POPC      H2X           -25.3403064111      -10.5162645998       17.1906535129  MEMB      42              0.0000000000
      5601        48  POPC      H2Y           -25.2144302223       -8.7665282134       17.6229021896  MEMB      42              0.0000000000
      5602        48  POPC      C23           -30.0084507331      -14.9181318680       14.7023933199  MEMB      42              0.0000000000
      5603        48  POPC      H3R           -30.9849453084      -14.4189052095       14.5038122090  MEMB      42              0.0000000000
      5604        48  POPC      H3S           -30.1836524464      -15.6966016145       15.4866269678  MEMB      42              0.0000000000
      5605        48  POPC      C24           -29.5520055494      -15.6532465634       13.4385120542  MEMB      42              0.0000000000
      5606        48  POPC      H4R           -30.4157490607      -16.2120452159       13.0085045694  MEMB      42              0.0000000000
      5607        48  POPC      H4S           -28.7785786103      -16.4076053710       13.7144959638  MEMB      42              0.0000000000
      5608        48  POPC      C25           -28.9784666493      -14.6973366674       12.3871136639  MEMB      42              0.0000000000
      5609        48  POPC      H5R           -28.0572663956      -14.2086423668       12.7732715881  MEMB      42              0.0000000000
      5610        48  POPC      H5S           -29.7199537954      -13.8966699333       12.1671383117  MEMB      42              0.0000000000
      5611        48  POPC      C26           -28.6206163438      -15.4218309292       11.0937153013  MEMB      42              0.0000000000
      5612        48  POPC      H6R           -29.5510962659      -15.8620878409       10.6685881552  MEMB      42              0.0000000000
      5613        48  POPC      H6S           -27.9211195127      -16.2573581488       11.3176784809  MEMB      42              0.0000000000
      5614        48  POPC      C27           -27.9774574027      -14.4705071995       10.0773174112  MEMB      42              0.0000000000
      5615        48  POPC      H7R           -27.1441831554      -13.9309737641       10.5792708986  MEMB      42              0.0000000000
      5616        48  POPC      H7S           -28.7335933731      -13.7097017121        9.7758829705  MEMB      42              0.0000000000
      5617        48  POPC      C28           -27.4114000239      -15.1728182164        8.8333605093  MEMB      42              0.0000000000
      5618        48  POPC      H8R           -26.5406179621      -15.7954697693        9.1359706113  MEMB      42              0.0000000000
      5619        48  POPC      H8S           -27.0293749854      -14.3993142267        8.1290982446  MEMB      42              0.0000000000
      5620        48  POPC      C29           -28.4602336388      -16.0355998474        8.1908608719  MEMB      42              0.0000000000
      5621        48  POPC      H91           -28.4748208825      -17.0784635553        8.5449260714  MEMB      42              0.0000000000
      5622        48  POPC      C210          -29.3848081541      -15.6340601152        7.3040585396  MEMB      42              0.0000000000
      5623        48  POPC      H101          -30.1226730392      -16.3638349139        6.9484454670  MEMB      42              0.0000000000
      5624        48  POPC      C211          -29.5773381726      -14.2461162943        6.7568706574  MEMB      42              0.0000000000
      5625        48  POPC      H11R          -28.9195786387      -13.5054164709        7.2659172407  MEMB      42              0.0000000000
      5626        48  POPC      H11S          -30.6098937811      -13.9071198335        6.9617088028  MEMB      42              0.0000000000
      5627        48  POPC      C212          -29.3001748486      -14.1618109394        5.2432667864  MEMB      42              0.0000000000
      5628        48  POPC      H12R          -28.2043109345      -14.2963455071        5.0926793929  MEMB      42              0.0000000000
      5629        48  POPC      H12S          -29.5722998413      -13.1363750351        4.9105091925  MEMB      42              0.0000000000
      5630        48  POPC      C213          -30.0333087565      -15.1713298176        4.3382991877  MEMB      42              0.0000000000
      5631        48  POPC      H13R          -31.1319276619      -15.0969539425        4.4723870626  MEMB      42              0.0000000000
      5632        48  POPC      H13S          -29.7292998288      -16.1975457972        4.6431621941  MEMB      42              0.0000000000
      5633        48  POPC      C214          -29.6907188218      -15.0094389111        2.8418147151  MEMB      42              0.0000000000
      5634        48  POPC      H14R          -30.0340604103      -15.9252847509        2.3088380639  MEMB      42              0.0000000000
      5635        48  POPC      H14S          -28.5858336854      -14.9547926184        2.7327532840  MEMB      42              0.0000000000
      5636        48  POPC      C215          -30.3453638348      -13.7988898643        2.1471920241  MEMB      42              0.0000000000
      5637        48  POPC      H15R          -30.2144232659      -12.8753376137        2.7471184877  MEMB      42              0.0000000000
      5638        48  POPC      H15S          -31.4345121158      -13.9851684398        2.0780364728  MEMB      42              0.0000000000
      5639        48  POPC      C216          -29.8288559688      -13.5758872959        0.7152855663  MEMB      42              0.0000000000
      5640        48  POPC      H16R          -29.6124175712      -14.5676656087        0.2667154221  MEMB      42              0.0000000000
      5641        48  POPC      H16S          -28.8724064161      -13.0190452576        0.7499280716  MEMB      42              0.0000000000
      5642        48  POPC      C217          -30.8034243039      -12.8438007469       -0.2222911420  MEMB      42              0.0000000000
      5643        48  POPC      H17R          -31.6477882492      -13.5201927623       -0.4711127332  MEMB      42              0.0000000000
      5644        48  POPC      H17S          -30.2733951317      -12.6330531575       -1.1796558442  MEMB      42              0.0000000000
      5645        48  POPC      C218          -31.3886253024      -11.5466167115        0.3305336579  MEMB      42              0.0000000000
      5646        48  POPC      H18R          -30.5862134987      -10.8485323880        0.6322887541  MEMB      42              0.0000000000
      5647        48  POPC      H18S          -32.0240852547      -11.7391428859        1.2189341512  MEMB      42              0.0000000000
      5648        48  POPC      H18T          -32.0089079949      -11.0567198951       -0.4491290563  MEMB      42              0.0000000000
      5649        48  POPC      C33           -25.1793751641       -9.1844022132       15.4776066403  MEMB      42              0.0000000000
      5650        48  POPC      H3X           -24.0933919078       -8.9985042884       15.5704073385  MEMB      42              0.0000000000
      5651        48  POPC      H3Y           -25.6320763006       -8.2393327684       15.1001402436  MEMB      42              0.0000000000
      5652        48  POPC      C34           -25.4009621746      -10.3171138100       14.4575619514  MEMB      42              0.0000000000
      5653        48  POPC      H4X           -24.9424688275      -11.2583313465       14.8234252625  MEMB      42              0.0000000000
      5654        48  POPC      H4Y           -24.8573054322      -10.0248622006       13.5297873037  MEMB      42              0.0000000000
      5655        48  POPC      C35           -26.8732191611      -10.5567965939       14.0868253954  MEMB      42              0.0000000000
      5656        48  POPC      H5X           -27.3970707345       -9.5736737359       13.9891870857  MEMB      42              0.0000000000
      5657        48  POPC      H5Y           -27.3778581294      -11.1204990645       14.9018406876  MEMB      42              0.0000000000
      5658        48  POPC      C36           -27.0473803558      -11.3049734110       12.7624670234  MEMB      42              0.0000000000
      5659        48  POPC      H6X           -28.0767077300      -11.7321664496       12.7150405520  MEMB      42              0.0000000000
      5660        48  POPC      H6Y           -26.3201960248      -12.1433234716       12.6960769298  MEMB      42              0.0000000000
      5661        48  POPC      C37           -26.9007674718      -10.3655859286       11.5604971562  MEMB      42              0.0000000000
      5662        48  POPC      H7X           -25.9152906189       -9.8538382387       11.5953014551  MEMB      42              0.0000000000
      5663        48  POPC      H7Y           -27.6933077296       -9.5831048939       11.6214042553  MEMB      42              0.0000000000
      5664        48  POPC      C38           -27.0309994404      -11.0929310768       10.2231594458  MEMB      42              0.0000000000
      5665        48  POPC      H8X           -28.0623226422      -11.5083496692       10.1469781381  MEMB      42              0.0000000000
      5666        48  POPC      H8Y           -26.3135531091      -11.9432874302       10.1996170162  MEMB      42              0.0000000000
      5667        48  POPC      C39           -26.7603807279      -10.1806451438        9.0225825309  MEMB      42              0.0000000000
      5668        48  POPC      H9X           -25.6929082219       -9.8635701377        9.0423016312  MEMB      42              0.0000000000
      5669        48  POPC      H9Y           -27.3849424561       -9.2651657916        9.1160455722  MEMB      42              0.0000000000
      5670        48  POPC      C310          -27.0678544972      -10.8775303222        7.6892325626  MEMB      42              0.0000000000
      5671        48  POPC      H10X          -28.1345398418      -11.1936533900        7.6560195807  MEMB      42              0.0000000000
      5672        48  POPC      H10Y          -26.4459902925      -11.8009240518        7.6371364115  MEMB      42              0.0000000000
      5673        48  POPC      C311          -26.7474399522       -9.9927036318        6.4778953222  MEMB      42              0.0000000000
      5674        48  POPC      H11X          -25.7694068946       -9.4965802747        6.6869861489  MEMB      42              0.0000000000
      5675        48  POPC      H11Y          -27.5024371731       -9.1868992628        6.3557494460  MEMB      42              0.0000000000
      5676        48  POPC      C312          -26.5821097882      -10.7934845934        5.1795807582  MEMB      42              0.0000000000
      5677        48  POPC      H12X          -26.2129161008      -11.8155696593        5.4165095613  MEMB      42              0.0000000000
      5678        48  POPC      H12Y          -25.8105918042      -10.2834133457        4.5645818600  MEMB      42              0.0000000000
      5679        48  POPC      C313          -27.8163822847      -10.8768225073        4.2787986911  MEMB      42              0.0000000000
      5680        48  POPC      H13X          -27.9967601987       -9.8663279097        3.8490970685  MEMB      42              0.0000000000
      5681        48  POPC      H13Y          -28.7075207246      -11.1446699011        4.8863652883  MEMB      42              0.0000000000
      5682        48  POPC      C314          -27.6584229591      -11.8928064940        3.1279391441  MEMB      42              0.0000000000
      5683        48  POPC      H14X          -28.4242337698      -11.6621349181        2.3570005944  MEMB      42              0.0000000000
      5684        48  POPC      H14Y          -27.8534669741      -12.9105799040        3.5156537253  MEMB      42              0.0000000000
      5685        48  POPC      C315          -26.2762587681      -11.9566651012        2.4662661471  MEMB      42              0.0000000000
      5686        48  POPC      H15X          -25.4956213153      -12.1115706360        3.2446778922  MEMB      42              0.0000000000
      5687        48  POPC      H15Y          -26.1004586320      -10.9768793695        1.9812439877  MEMB      42              0.0000000000
      5688        48  POPC      C316          -26.1118938344      -13.0723845063        1.4300656691  MEMB      42              0.0000000000
      5689        48  POPC      H16X          -26.7601946651      -12.8848614968        0.5488245555  MEMB      42              0.0000000000
      5690        48  POPC      H16Y          -26.3893567126      -14.0540000909        1.8691397291  MEMB      42              0.0000000000
      5691        48  POPC      H16Z          -25.0573123327      -13.1264323793        1.0825811749  MEMB      42              0.0000000000
      5692        49  POPC      N              27.9276642531      -16.7973346419       20.2014696245  MEMB      43              0.0000000000
      5693        49  POPC      C12            26.8702952779      -17.7046435887       19.5817194313  MEMB      43              0.0000000000
      5694        49  POPC      H12A           26.8769685014      -18.6760376986       20.0695574538  MEMB      43              0.0000000000
      5695        49  POPC      H12B           27.1050321958      -17.8531598615       18.5409237855  MEMB      43              0.0000000000
      5696        49  POPC      C13            27.5930262654      -16.6441226201       21.6565094746  MEMB      43              0.0000000000
      5697        49  POPC      H13A           26.5698537462      -16.2868303139       21.7484442393  MEMB      43              0.0000000000
      5698        49  POPC      H13B           27.6718007066      -17.5957377199       22.1768305062  MEMB      43              0.0000000000
      5699        49  POPC      H13C           28.2298156216      -15.9082543689       22.1259132034  MEMB      43              0.0000000000
      5700        49  POPC      C14            29.3110419525      -17.3120274448       20.0295448829  MEMB      43              0.0000000000
      5701        49  POPC      H14A           30.0351644720      -16.5475511131       20.2918680334  MEMB      43              0.0000000000
      5702        49  POPC      H14B           29.4796999806      -18.1701018211       20.6809078253  MEMB      43              0.0000000000
      5703        49  POPC      H14C           29.5204086442      -17.6215519798       19.0123457929  MEMB      43              0.0000000000
      5704        49  POPC      C15            27.8831440270      -15.4065154085       19.6273899697  MEMB      43              0.0000000000
      5705        49  POPC      H15A           28.0210354448      -15.4148197539       18.5607646806  MEMB      43              0.0000000000
      5706        49  POPC      H15B           28.5896514055      -14.7260700481       20.0845083262  MEMB      43              0.0000000000
      5707        49  POPC      H15C           26.8709887597      -15.0054593663       19.7537360890  MEMB      43              0.0000000000
      5708        49  POPC      C11            25.4156555607      -17.1814532437       19.5933501846  MEMB      43              0.0000000000
      5709        49  POPC      H11A           25.0815834491      -16.9592916758       20.6307856593  MEMB      43              0.0000000000
      5710        49  POPC      H11B           24.7360698745      -17.9602455895       19.1729944152  MEMB      43              0.0000000000
      5711        49  POPC      P              24.1328884660      -15.1458897838       18.4775501359  MEMB      43              0.0000000000
      5712        49  POPC      O13            24.6419454352      -13.7602288564       18.4740425173  MEMB      43              0.0000000000
      5713        49  POPC      O14            23.0800726801      -15.5028451533       19.4482939764  MEMB      43              0.0000000000
      5714        49  POPC      O12            25.3850262198      -16.0252237424       18.7897254107  MEMB      43              0.0000000000
      5715        49  POPC      O11            23.8135216063      -15.6631589792       17.0093533149  MEMB      43              0.0000000000
      5716        49  POPC      C1             24.8012858154      -16.3501178818       16.2219582459  MEMB      43              0.0000000000
      5717        49  POPC      HA             24.3151081532      -16.7515481021       15.3058591852  MEMB      43              0.0000000000
      5718        49  POPC      HB             25.2197334502      -17.2223743006       16.7690348553  MEMB      43              0.0000000000
      5719        49  POPC      C2             25.9457047955      -15.4020793471       15.7765927757  MEMB      43              0.0000000000
      5720        49  POPC      HS             26.3207036078      -14.9123303769       16.7081808574  MEMB      43              0.0000000000
      5721        49  POPC      O21            25.3881417113      -14.4580032778       14.8526151696  MEMB      43              0.0000000000
      5722        49  POPC      C21            25.8984495032      -13.2582674411       14.9444902675  MEMB      43              0.0000000000
      5723        49  POPC      O22            26.8005221798      -12.8994333455       15.6810555445  MEMB      43              0.0000000000
      5724        49  POPC      C22            25.3164988151      -12.4042953687       13.8296123324  MEMB      43              0.0000000000
      5725        49  POPC      H2R            25.2756884900      -11.3898754183       14.2616587226  MEMB      43              0.0000000000
      5726        49  POPC      H2S            24.2822858160      -12.7358440723       13.6086547275  MEMB      43              0.0000000000
      5727        49  POPC      C3             27.1815618469      -16.1090182230       15.1312350006  MEMB      43              0.0000000000
      5728        49  POPC      HX             27.4964032875      -16.9254152864       15.8148523846  MEMB      43              0.0000000000
      5729        49  POPC      HY             27.9944992056      -15.3417388312       15.1276297624  MEMB      43              0.0000000000
      5730        49  POPC      O31            26.9069731238      -16.6564705260       13.8170101695  MEMB      43              0.0000000000
      5731        49  POPC      C31            27.8624928434      -16.4629149481       12.8920046045  MEMB      43              0.0000000000
      5732        49  POPC      O32            28.9431041776      -15.9461002497       13.0998308180  MEMB      43              0.0000000000
      5733        49  POPC      C32            27.3874278869      -17.0260447346       11.5460415855  MEMB      43              0.0000000000
      5734        49  POPC      H2X            26.5076799043      -16.4461170019       11.2148476196  MEMB      43              0.0000000000
      5735        49  POPC      H2Y            27.0438548252      -18.0608131699       11.7544543531  MEMB      43              0.0000000000
      5736        49  POPC      C23            26.2125492063      -12.4539964034       12.5651090799  MEMB      43              0.0000000000
      5737        49  POPC      H3R            27.2853084972      -12.5349807415       12.8606227354  MEMB      43              0.0000000000
      5738        49  POPC      H3S            26.1086697000      -11.5191668659       11.9744124144  MEMB      43              0.0000000000
      5739        49  POPC      C24            25.8386311904      -13.6105043955       11.6303309498  MEMB      43              0.0000000000
      5740        49  POPC      H4R            25.5853555776      -14.5021564065       12.2476941768  MEMB      43              0.0000000000
      5741        49  POPC      H4S            26.7191741188      -13.8723463187       11.0043783189  MEMB      43              0.0000000000
      5742        49  POPC      C25            24.6641637372      -13.2680250077       10.6992829180  MEMB      43              0.0000000000
      5743        49  POPC      H5R            25.0308546221      -12.7194733972        9.8034978943  MEMB      43              0.0000000000
      5744        49  POPC      H5S            23.9697893957      -12.5885406793       11.2465749867  MEMB      43              0.0000000000
      5745        49  POPC      C26            23.8539928671      -14.5007375233       10.2781070083  MEMB      43              0.0000000000
      5746        49  POPC      H6R            22.8934762783      -14.1682244974        9.8253492845  MEMB      43              0.0000000000
      5747        49  POPC      H6S            23.6067553968      -15.0776274691       11.1994972457  MEMB      43              0.0000000000
      5748        49  POPC      C27            24.5534216374      -15.4292881884        9.2722503484  MEMB      43              0.0000000000
      5749        49  POPC      H7R            25.6378921994      -15.4503379555        9.4944064623  MEMB      43              0.0000000000
      5750        49  POPC      H7S            24.4412063629      -15.0224847011        8.2415817827  MEMB      43              0.0000000000
      5751        49  POPC      C28            24.0295851058      -16.8753036021        9.3511970699  MEMB      43              0.0000000000
      5752        49  POPC      H8R            24.1477594655      -17.2415677731       10.3951918419  MEMB      43              0.0000000000
      5753        49  POPC      H8S            24.6706278890      -17.5203424896        8.7095283611  MEMB      43              0.0000000000
      5754        49  POPC      C29            22.5806904336      -16.9219216875        8.9371480376  MEMB      43              0.0000000000
      5755        49  POPC      H91            21.9019516842      -16.3078603398        9.5509671164  MEMB      43              0.0000000000
      5756        49  POPC      C210           22.0643846905      -17.6199053902        7.9126442811  MEMB      43              0.0000000000
      5757        49  POPC      H101           20.9861782757      -17.5408008605        7.7093922437  MEMB      43              0.0000000000
      5758        49  POPC      C211           22.8332511433      -18.5047692905        6.9701114683  MEMB      43              0.0000000000
      5759        49  POPC      H11R           22.1165332196      -19.1352342607        6.3974606499  MEMB      43              0.0000000000
      5760        49  POPC      H11S           23.4637719469      -19.1985823428        7.5619763014  MEMB      43              0.0000000000
      5761        49  POPC      C212           23.7353655753      -17.7720468270        5.9560035270  MEMB      43              0.0000000000
      5762        49  POPC      H12R           24.5639323313      -17.2450563529        6.4793092022  MEMB      43              0.0000000000
      5763        49  POPC      H12S           23.1409644540      -17.0034775732        5.4163293830  MEMB      43              0.0000000000
      5764        49  POPC      C213           24.3145876436      -18.7477971902        4.9228044036  MEMB      43              0.0000000000
      5765        49  POPC      H13R           23.4670926813      -19.3448000620        4.5149435001  MEMB      43              0.0000000000
      5766        49  POPC      H13S           25.0129922821      -19.4529578997        5.4243530225  MEMB      43              0.0000000000
      5767        49  POPC      C214           25.0380747791      -18.0510735700        3.7613963482  MEMB      43              0.0000000000
      5768        49  POPC      H14R           25.8414351792      -17.3958753625        4.1673266847  MEMB      43              0.0000000000
      5769        49  POPC      H14S           24.3062608950      -17.3978455074        3.2323549931  MEMB      43              0.0000000000
      5770        49  POPC      C215           25.6457617329      -19.0316391295        2.7404249171  MEMB      43              0.0000000000
      5771        49  POPC      H15R           26.5240577109      -19.5373563979        3.1987429918  MEMB      43              0.0000000000
      5772        49  POPC      H15S           26.0157540514      -18.4498723760        1.8671762405  MEMB      43              0.0000000000
      5773        49  POPC      C216           24.6528426732      -20.1078833216        2.2605364439  MEMB      43              0.0000000000
      5774        49  POPC      H16R           23.6807658423      -19.6195794217        2.0295272623  MEMB      43              0.0000000000
      5775        49  POPC      H16S           24.4848630327      -20.8163068350        3.1014753047  MEMB      43              0.0000000000
      5776        49  POPC      C217           25.1236743018      -20.9023211405        1.0302684020  MEMB      43              0.0000000000
      5777        49  POPC      H17R           26.2049137531      -20.6929067801        0.8759081580  MEMB      43              0.0000000000
      5778        49  POPC      H17S           24.5982464257      -20.5261918518        0.1257289365  MEMB      43              0.0000000000
      5779        49  POPC      C218           24.9073486496      -22.4170568519        1.1199773409  MEMB      43              0.0000000000
      5780        49  POPC      H18R           25.5239550677      -22.9393292261        0.3567833678  MEMB      43              0.0000000000
      5781        49  POPC      H18S           23.8445276798      -22.6758657972        0.9418102788  MEMB      43              0.0000000000
      5782        49  POPC      H18T           25.1953515365      -22.8010730103        2.1224401946  MEMB      43              0.0000000000
      5783        49  POPC      C33            28.4622952888      -17.0785387901       10.4182164695  MEMB      43              0.0000000000
      5784        49  POPC      H3X            28.1225584290      -17.8571889402        9.6983023859  MEMB      43              0.0000000000
      5785        49  POPC      H3Y            29.4501497132      -17.4085262058       10.8045454925  MEMB      43              0.0000000000
      5786        49  POPC      C34            28.6062044651      -15.8009408230        9.5732741948  MEMB      43              0.0000000000
      5787        49  POPC      H4X            29.4198838277      -15.1674438203        9.9902462464  MEMB      43              0.0000000000
      5788        49  POPC      H4Y            27.6702128499      -15.2140774378        9.6322757789  MEMB      43              0.0000000000
      5789        49  POPC      C35            28.8716661303      -16.1087328028        8.0848585749  MEMB      43              0.0000000000
      5790        49  POPC      H5X            28.0593249994      -16.7550697394        7.6831399302  MEMB      43              0.0000000000
      5791        49  POPC      H5Y            29.8240176550      -16.6812127688        8.0160358872  MEMB      43              0.0000000000
      5792        49  POPC      C36            28.9910481059      -14.8601957580        7.1933784322  MEMB      43              0.0000000000
      5793        49  POPC      H6X            29.4383547609      -15.1560633250        6.2180719967  MEMB      43              0.0000000000
      5794        49  POPC      H6Y            29.6897593266      -14.1505638515        7.6866946294  MEMB      43              0.0000000000
      5795        49  POPC      C37            27.6580602011      -14.1475929572        6.9062759972  MEMB      43              0.0000000000
      5796        49  POPC      H7X            27.1572467705      -13.9438814050        7.8793499078  MEMB      43              0.0000000000
      5797        49  POPC      H7Y            26.9860881657      -14.8140530533        6.3224414829  MEMB      43              0.0000000000
      5798        49  POPC      C38            27.8386999584      -12.8005294981        6.1800051071  MEMB      43              0.0000000000
      5799        49  POPC      H8X            28.9029920047      -12.4810032452        6.2472256411  MEMB      43              0.0000000000
      5800        49  POPC      H8Y            27.2331287031      -12.0360371434        6.7197548740  MEMB      43              0.0000000000
      5801        49  POPC      C39            27.3987496597      -12.7763567665        4.7038882809  MEMB      43              0.0000000000
      5802        49  POPC      H9X            27.4833701221      -11.7216134195        4.3522259307  MEMB      43              0.0000000000
      5803        49  POPC      H9Y            26.3318955157      -13.0762049241        4.6159641073  MEMB      43              0.0000000000
      5804        49  POPC      C310           28.2585290355      -13.6460745665        3.7735456367  MEMB      43              0.0000000000
      5805        49  POPC      H10X           27.9562831079      -14.7100885957        3.8767613252  MEMB      43              0.0000000000
      5806        49  POPC      H10Y           29.3140385191      -13.5653702380        4.1101690122  MEMB      43              0.0000000000
      5807        49  POPC      C311           28.2242694599      -13.2068658783        2.2973136347  MEMB      43              0.0000000000
      5808        49  POPC      H11X           28.8680845763      -13.8895530902        1.6985076808  MEMB      43              0.0000000000
      5809        49  POPC      H11Y           28.6700175998      -12.1865998683        2.2344862294  MEMB      43              0.0000000000
      5810        49  POPC      C312           26.8284557565      -13.1539439655        1.6605019156  MEMB      43              0.0000000000
      5811        49  POPC      H12X           26.9222988154      -12.6592303211        0.6664311073  MEMB      43              0.0000000000
      5812        49  POPC      H12Y           26.1572271409      -12.5216625019        2.2824434040  MEMB      43              0.0000000000
      5813        49  POPC      C313           26.1852528602      -14.5345094974        1.4616115386  MEMB      43              0.0000000000
      5814        49  POPC      H13X           26.2140635248      -15.0907611148        2.4260250769  MEMB      43              0.0000000000
      5815        49  POPC      H13Y           26.7861174305      -15.1124521273        0.7254062038  MEMB      43              0.0000000000
      5816        49  POPC      C314           24.7177483136      -14.4584274245        1.0043710100  MEMB      43              0.0000000000
      5817        49  POPC      H14X           24.1308562486      -13.9690651183        1.8158668351  MEMB      43              0.0000000000
      5818        49  POPC      H14Y           24.3214952116      -15.4901021800        0.8879011735  MEMB      43              0.0000000000
      5819        49  POPC      C315           24.4768972819      -13.6699350969       -0.2939302376  MEMB      43              0.0000000000
      5820        49  POPC      H15X           24.8484856264      -12.6316209040       -0.1520498693  MEMB      43              0.0000000000
      5821        49  POPC      H15Y           23.3805452689      -13.5953715243       -0.4612465170  MEMB      43              0.0000000000
      5822        49  POPC      C316           25.0966479434      -14.2618931850       -1.5592929881  MEMB      43              0.0000000000
      5823        49  POPC      H16X           24.9852398642      -13.5481963888       -2.4035771973  MEMB      43              0.0000000000
      5824        49  POPC      H16Y           24.5871890849      -15.2016831573       -1.8502468579  MEMB      43              0.0000000000
      5825        49  POPC      H16Z           26.1757548819      -14.4758330556       -1.4108879969  MEMB      43              0.0000000000
      5826        50  POPC      N             -16.0408561825      -23.9741115772       17.9476935517  MEMB      44              0.0000000000
      5827        50  POPC      C12           -16.3160150958      -25.4603001852       17.8469642734  MEMB      44              0.0000000000
      5828        50  POPC      H12A          -16.0013421607      -25.8119873406       16.8762930271  MEMB      44              0.0000000000
      5829        50  POPC      H12B          -17.3802745195      -25.6601863213       17.9318600686  MEMB      44              0.0000000000
      5830        50  POPC      C13           -16.7040983720      -23.4115826753       19.1723537080  MEMB      44              0.0000000000
      5831        50  POPC      H13A          -17.7425508315      -23.1522600003       18.9876447496  MEMB      44              0.0000000000
      5832        50  POPC      H13B          -16.6555297392      -24.1204146021       19.9927616527  MEMB      44              0.0000000000
      5833        50  POPC      H13C          -16.2179539966      -22.4700680077       19.4444978112  MEMB      44              0.0000000000
      5834        50  POPC      C14           -14.5840790189      -23.6874346614       18.1064161090  MEMB      44              0.0000000000
      5835        50  POPC      H14A          -14.4417185882      -22.6150812740       18.2794431993  MEMB      44              0.0000000000
      5836        50  POPC      H14B          -14.2030189307      -24.1670221099       19.0017583002  MEMB      44              0.0000000000
      5837        50  POPC      H14C          -13.9835128682      -23.9520100645       17.2497270012  MEMB      44              0.0000000000
      5838        50  POPC      C15           -16.4634400207      -23.2001898461       16.7449516273  MEMB      44              0.0000000000
      5839        50  POPC      H15A          -16.2168106489      -22.1453438245       16.9189652119  MEMB      44              0.0000000000
      5840        50  POPC      H15B          -17.5348147815      -23.2320714856       16.5802089863  MEMB      44              0.0000000000
      5841        50  POPC      H15C          -15.9332691310      -23.5300885271       15.8641026244  MEMB      44              0.0000000000
      5842        50  POPC      C11           -15.6216489350      -26.3622636542       18.8953371845  MEMB      44              0.0000000000
      5843        50  POPC      H11A          -14.5572044086      -26.1042257620       18.9483045031  MEMB      44              0.0000000000
      5844        50  POPC      H11B          -15.6306010200      -27.4113508921       18.5083978001  MEMB      44              0.0000000000
      5845        50  POPC      P             -17.0816305336      -27.4098132719       20.7484677214  MEMB      44              0.0000000000
      5846        50  POPC      O13           -17.9266720560      -27.8867258998       19.6464137872  MEMB      44              0.0000000000
      5847        50  POPC      O14           -17.7582205622      -26.9826985803       21.9874406988  MEMB      44              0.0000000000
      5848        50  POPC      O12           -16.1672555363      -26.2194665298       20.2158162648  MEMB      44              0.0000000000
      5849        50  POPC      O11           -16.0691614554      -28.5683186767       21.1122925640  MEMB      44              0.0000000000
      5850        50  POPC      C1            -14.7514103880      -28.3604589893       21.6176490194  MEMB      44              0.0000000000
      5851        50  POPC      HA            -14.6634038742      -28.9173238388       22.5757620770  MEMB      44              0.0000000000
      5852        50  POPC      HB            -14.5243537441      -27.2931308957       21.8535836549  MEMB      44              0.0000000000
      5853        50  POPC      C2            -13.6448718202      -28.9285523824       20.6783598386  MEMB      44              0.0000000000
      5854        50  POPC      HS            -12.7520587036      -29.1621301436       21.3132983467  MEMB      44              0.0000000000
      5855        50  POPC      O21           -13.3050310289      -28.0094748487       19.6315915251  MEMB      44              0.0000000000
      5856        50  POPC      C21           -12.3312994973      -27.2004123749       19.9435940718  MEMB      44              0.0000000000
      5857        50  POPC      O22           -11.8492558749      -27.0448977030       21.0553686131  MEMB      44              0.0000000000
      5858        50  POPC      C22           -11.8997826271      -26.4360856774       18.6914397780  MEMB      44              0.0000000000
      5859        50  POPC      H2R           -10.9433339289      -25.9487155965       18.9577535149  MEMB      44              0.0000000000
      5860        50  POPC      H2S           -12.6452862485      -25.6378018042       18.5451309180  MEMB      44              0.0000000000
      5861        50  POPC      C3            -13.9938524570      -30.2858750949       20.0140389605  MEMB      44              0.0000000000
      5862        50  POPC      HX            -14.0727819433      -30.9990294921       20.8616788812  MEMB      44              0.0000000000
      5863        50  POPC      HY            -13.0939623542      -30.5758102574       19.4146618049  MEMB      44              0.0000000000
      5864        50  POPC      O31           -15.2215028897      -30.3515094928       19.2308947856  MEMB      44              0.0000000000
      5865        50  POPC      C31           -15.0815077223      -29.9534525359       17.9729419730  MEMB      44              0.0000000000
      5866        50  POPC      O32           -14.0405955148      -29.6093367846       17.4550961454  MEMB      44              0.0000000000
      5867        50  POPC      C32           -16.4078917272      -30.0298604822       17.2098371935  MEMB      44              0.0000000000
      5868        50  POPC      H2X           -17.2165794789      -29.5779591991       17.8175665078  MEMB      44              0.0000000000
      5869        50  POPC      H2Y           -16.6394210766      -31.1020293746       17.0537000774  MEMB      44              0.0000000000
      5870        50  POPC      C23           -11.7062600904      -27.2402094036       17.3641572663  MEMB      44              0.0000000000
      5871        50  POPC      H3R           -11.6758791208      -28.3374067942       17.5627090389  MEMB      44              0.0000000000
      5872        50  POPC      H3S           -10.7098942382      -26.9640815675       16.9463262227  MEMB      44              0.0000000000
      5873        50  POPC      C24           -12.7553481572      -26.9448824522       16.2652465124  MEMB      44              0.0000000000
      5874        50  POPC      H4R           -13.0799436683      -25.8861930233       16.2972077019  MEMB      44              0.0000000000
      5875        50  POPC      H4S           -13.6614682597      -27.5517417274       16.4571820740  MEMB      44              0.0000000000
      5876        50  POPC      C25           -12.2374809553      -27.2323782835       14.8417787462  MEMB      44              0.0000000000
      5877        50  POPC      H5R           -11.7994404002      -28.2534037314       14.8039602384  MEMB      44              0.0000000000
      5878        50  POPC      H5S           -11.4162884692      -26.5209850511       14.6113039776  MEMB      44              0.0000000000
      5879        50  POPC      C26           -13.3327195511      -27.1104981365       13.7659089740  MEMB      44              0.0000000000
      5880        50  POPC      H6R           -14.0655222570      -26.3476562453       14.1101986062  MEMB      44              0.0000000000
      5881        50  POPC      H6S           -13.8663367118      -28.0835990934       13.6860858560  MEMB      44              0.0000000000
      5882        50  POPC      C27           -12.8179283769      -26.6778561579       12.3769940171  MEMB      44              0.0000000000
      5883        50  POPC      H7R           -11.9470212051      -27.3128526686       12.1092582072  MEMB      44              0.0000000000
      5884        50  POPC      H7S           -12.4515975773      -25.6291223793       12.4242904803  MEMB      44              0.0000000000
      5885        50  POPC      C28           -13.8690729585      -26.7744883419       11.2450380966  MEMB      44              0.0000000000
      5886        50  POPC      H8R           -14.0764108520      -27.8541819549       11.0748837036  MEMB      44              0.0000000000
      5887        50  POPC      H8S           -13.4123952276      -26.3813359741       10.3084420644  MEMB      44              0.0000000000
      5888        50  POPC      C29           -15.1588763407      -26.0623777157       11.5755371238  MEMB      44              0.0000000000
      5889        50  POPC      H91           -15.6240745913      -26.3931522365       12.5162613976  MEMB      44              0.0000000000
      5890        50  POPC      C210          -15.8204254520      -25.1532360972       10.8354126614  MEMB      44              0.0000000000
      5891        50  POPC      H101          -16.7544760905      -24.7400561637       11.2442637248  MEMB      44              0.0000000000
      5892        50  POPC      C211          -15.4563382406      -24.6011180964        9.4766351408  MEMB      44              0.0000000000
      5893        50  POPC      H11R          -14.9351150356      -25.3462506354        8.8383866877  MEMB      44              0.0000000000
      5894        50  POPC      H11S          -14.7501991079      -23.7594949471        9.6040965932  MEMB      44              0.0000000000
      5895        50  POPC      C212          -16.7164053855      -24.0831344404        8.7454112067  MEMB      44              0.0000000000
      5896        50  POPC      H12R          -17.3632035750      -23.5428281896        9.4765537093  MEMB      44              0.0000000000
      5897        50  POPC      H12S          -17.3046489560      -24.9331537894        8.3415374653  MEMB      44              0.0000000000
      5898        50  POPC      C213          -16.4451006033      -23.0817196338        7.6099008222  MEMB      44              0.0000000000
      5899        50  POPC      H13R          -15.8458940117      -22.2576315928        8.0340468117  MEMB      44              0.0000000000
      5900        50  POPC      H13S          -17.4051788670      -22.6399859586        7.2849187568  MEMB      44              0.0000000000
      5901        50  POPC      C214          -15.7624763930      -23.6805488258        6.3749317880  MEMB      44              0.0000000000
      5902        50  POPC      H14R          -16.3656859698      -24.5431461047        6.0241115366  MEMB      44              0.0000000000
      5903        50  POPC      H14S          -14.7634979518      -24.0439942714        6.6964807175  MEMB      44              0.0000000000
      5904        50  POPC      C215          -15.6066864754      -22.7226851520        5.1799806222  MEMB      44              0.0000000000
      5905        50  POPC      H15R          -15.0580769223      -21.8192620488        5.5284293629  MEMB      44              0.0000000000
      5906        50  POPC      H15S          -16.6157210214      -22.4027803146        4.8426998490  MEMB      44              0.0000000000
      5907        50  POPC      C216          -14.8298626160      -23.3072593026        3.9811737072  MEMB      44              0.0000000000
      5908        50  POPC      H16R          -13.8978697942      -23.7854565951        4.3541386465  MEMB      44              0.0000000000
      5909        50  POPC      H16S          -14.5259015921      -22.4729216556        3.3085082625  MEMB      44              0.0000000000
      5910        50  POPC      C217          -15.6010470115      -24.3396133217        3.1418382482  MEMB      44              0.0000000000
      5911        50  POPC      H17R          -16.0068262553      -25.1286805046        3.8131219398  MEMB      44              0.0000000000
      5912        50  POPC      H17S          -14.8737135906      -24.8376209426        2.4587378686  MEMB      44              0.0000000000
      5913        50  POPC      C218          -16.7359866870      -23.7488550419        2.2979339365  MEMB      44              0.0000000000
      5914        50  POPC      H18R          -17.2029810049      -24.5364269810        1.6683282720  MEMB      44              0.0000000000
      5915        50  POPC      H18S          -16.3489251815      -22.9498045734        1.6292723687  MEMB      44              0.0000000000
      5916        50  POPC      H18T          -17.5210209922      -23.3094956962        2.9496937574  MEMB      44              0.0000000000
      5917        50  POPC      C33           -16.2963031494      -29.3252999345       15.8361697477  MEMB      44              0.0000000000
      5918        50  POPC      H3X           -15.3277585864      -29.5776811225       15.3503894959  MEMB      44              0.0000000000
      5919        50  POPC      H3Y           -16.3134325625      -28.2244133169       15.9974604456  MEMB      44              0.0000000000
      5920        50  POPC      C34           -17.4003507344      -29.7089019769       14.8445253659  MEMB      44              0.0000000000
      5921        50  POPC      H4X           -18.3975972794      -29.5464537340       15.3167265436  MEMB      44              0.0000000000
      5922        50  POPC      H4Y           -17.3383655659      -30.7936361892       14.6023539262  MEMB      44              0.0000000000
      5923        50  POPC      C35           -17.3082958207      -28.8814699900       13.5483870592  MEMB      44              0.0000000000
      5924        50  POPC      H5X           -16.3345360319      -29.0741554421       13.0475055431  MEMB      44              0.0000000000
      5925        50  POPC      H5Y           -17.3511990340      -27.8021366005       13.8126703153  MEMB      44              0.0000000000
      5926        50  POPC      C36           -18.4489960456      -29.2004879371       12.5703159113  MEMB      44              0.0000000000
      5927        50  POPC      H6X           -19.4085530766      -29.0663913966       13.1218585477  MEMB      44              0.0000000000
      5928        50  POPC      H6Y           -18.3798263843      -30.2693770188       12.2673398947  MEMB      44              0.0000000000
      5929        50  POPC      C37           -18.4708213619      -28.3234588878       11.3080054492  MEMB      44              0.0000000000
      5930        50  POPC      H7X           -18.4143936429      -27.2499377129       11.5937095606  MEMB      44              0.0000000000
      5931        50  POPC      H7Y           -19.4411964796      -28.4718757819       10.7814599126  MEMB      44              0.0000000000
      5932        50  POPC      C38           -17.3458270846      -28.6681855857       10.3231803484  MEMB      44              0.0000000000
      5933        50  POPC      H8X           -17.4004784340      -29.7519563346       10.0791192141  MEMB      44              0.0000000000
      5934        50  POPC      H8Y           -16.3600388364      -28.4809753376       10.7998096070  MEMB      44              0.0000000000
      5935        50  POPC      C39           -17.4376436080      -27.8748114834        9.0128749570  MEMB      44              0.0000000000
      5936        50  POPC      H9X           -17.6073613637      -26.8036465029        9.2452176798  MEMB      44              0.0000000000
      5937        50  POPC      H9Y           -18.3209560014      -28.2449236500        8.4543277989  MEMB      44              0.0000000000
      5938        50  POPC      C310          -16.1797455477      -28.0235272313        8.1446184118  MEMB      44              0.0000000000
      5939        50  POPC      H10X          -15.9321830865      -29.1012028600        8.1005805004  MEMB      44              0.0000000000
      5940        50  POPC      H10Y          -15.3259873978      -27.5153323764        8.6406289809  MEMB      44              0.0000000000
      5941        50  POPC      C311          -16.3340278636      -27.5039994783        6.7065936845  MEMB      44              0.0000000000
      5942        50  POPC      H11X          -16.5812349954      -26.4266100538        6.7229898401  MEMB      44              0.0000000000
      5943        50  POPC      H11Y          -17.1965187649      -28.0146111789        6.2320599732  MEMB      44              0.0000000000
      5944        50  POPC      C312          -15.0903170621      -27.7610514975        5.8339799087  MEMB      44              0.0000000000
      5945        50  POPC      H12X          -15.4030023347      -27.8068482240        4.7657370213  MEMB      44              0.0000000000
      5946        50  POPC      H12Y          -14.6644579004      -28.7443592046        6.1056615963  MEMB      44              0.0000000000
      5947        50  POPC      C313          -14.0300327204      -26.6639354931        5.9715164907  MEMB      44              0.0000000000
      5948        50  POPC      H13X          -13.7570143314      -26.5127083235        7.0376796331  MEMB      44              0.0000000000
      5949        50  POPC      H13Y          -14.5138907858      -25.7383773478        5.6012322778  MEMB      44              0.0000000000
      5950        50  POPC      C314          -12.7700121399      -26.8285141574        5.1121502070  MEMB      44              0.0000000000
      5951        50  POPC      H14X          -12.3209264853      -25.8137466311        4.9971387052  MEMB      44              0.0000000000
      5952        50  POPC      H14Y          -13.0434927346      -27.1813227115        4.0933712298  MEMB      44              0.0000000000
      5953        50  POPC      C315          -11.6964223923      -27.7318243284        5.7220388263  MEMB      44              0.0000000000
      5954        50  POPC      H15X          -12.0308317421      -28.7905990950        5.6535933730  MEMB      44              0.0000000000
      5955        50  POPC      H15Y          -11.5749274113      -27.4877553168        6.8020776811  MEMB      44              0.0000000000
      5956        50  POPC      C316          -10.3444675096      -27.5648339811        5.0240892517  MEMB      44              0.0000000000
      5957        50  POPC      H16X          -10.4442716390      -27.7179318372        3.9277724983  MEMB      44              0.0000000000
      5958        50  POPC      H16Y           -9.6041652278      -28.2948011942        5.4151310157  MEMB      44              0.0000000000
      5959        50  POPC      H16Z           -9.9436179504      -26.5420418814        5.1925090688  MEMB      44              0.0000000000
      5960        51  POPC      N              24.5606759554       15.0056136662       20.1705118293  MEMB      45              0.0000000000
      5961        51  POPC      C12            24.1242907796       16.3568361002       19.6242694365  MEMB      45              0.0000000000
      5962        51  POPC      H12A           23.7497645291       16.9703586081       20.4399295398  MEMB      45              0.0000000000
      5963        51  POPC      H12B           23.2812194111       16.2076298054       18.9562614828  MEMB      45              0.0000000000
      5964        51  POPC      C13            25.6118290481       15.2042253300       21.2176646653  MEMB      45              0.0000000000
      5965        51  POPC      H13A           25.2175657963       15.7333420357       22.0778514860  MEMB      45              0.0000000000
      5966        51  POPC      H13B           26.0273604836       14.2682950617       21.5609104887  MEMB      45              0.0000000000
      5967        51  POPC      H13C           26.4082601478       15.8430594081       20.8237660231  MEMB      45              0.0000000000
      5968        51  POPC      C14            23.3551120176       14.3546347645       20.7790607007  MEMB      45              0.0000000000
      5969        51  POPC      H14A           23.6252042231       13.4226978183       21.2567559390  MEMB      45              0.0000000000
      5970        51  POPC      H14B           22.9235803262       15.0080199694       21.5323957317  MEMB      45              0.0000000000
      5971        51  POPC      H14C           22.6003885126       14.1566101854       20.0221553704  MEMB      45              0.0000000000
      5972        51  POPC      C15            25.1504367463       14.1238005003       19.1026948923  MEMB      45              0.0000000000
      5973        51  POPC      H15A           26.1003254793       14.5324870096       18.7633578275  MEMB      45              0.0000000000
      5974        51  POPC      H15B           24.5171138654       14.0167473430       18.2358933647  MEMB      45              0.0000000000
      5975        51  POPC      H15C           25.3413597391       13.1381449020       19.5037354216  MEMB      45              0.0000000000
      5976        51  POPC      C11            25.1839121813       17.1964811782       18.8852864708  MEMB      45              0.0000000000
      5977        51  POPC      H11A           24.6514591277       18.0424394335       18.3875570308  MEMB      45              0.0000000000
      5978        51  POPC      H11B           25.6316902580       16.5451479809       18.1000080647  MEMB      45              0.0000000000
      5979        51  POPC      P              27.4335053860       18.4793785822       19.1439351730  MEMB      45              0.0000000000
      5980        51  POPC      O13            28.6385320626       17.8872641941       19.7745712097  MEMB      45              0.0000000000
      5981        51  POPC      O14            27.2739128389       19.9423182597       19.3210381494  MEMB      45              0.0000000000
      5982        51  POPC      O12            26.1877066783       17.7021297710       19.7648666499  MEMB      45              0.0000000000
      5983        51  POPC      O11            27.4055288020       18.0523367055       17.6121306026  MEMB      45              0.0000000000
      5984        51  POPC      C1             26.7250600259       18.7781778266       16.5838963694  MEMB      45              0.0000000000
      5985        51  POPC      HA             27.4816749715       19.2956726647       15.9527467639  MEMB      45              0.0000000000
      5986        51  POPC      HB             26.0485242899       19.5570405774       17.0081111711  MEMB      45              0.0000000000
      5987        51  POPC      C2             25.8587852607       17.8783374726       15.6237362423  MEMB      45              0.0000000000
      5988        51  POPC      HS             25.2102487205       17.2179729884       16.2318978471  MEMB      45              0.0000000000
      5989        51  POPC      O21            26.7306339048       17.0790027309       14.8032895847  MEMB      45              0.0000000000
      5990        51  POPC      C21            26.2291125423       16.4398680068       13.7525331665  MEMB      45              0.0000000000
      5991        51  POPC      O22            25.0721615169       16.1051572282       13.5910195367  MEMB      45              0.0000000000
      5992        51  POPC      C22            27.4081124661       16.1729855442       12.8261774158  MEMB      45              0.0000000000
      5993        51  POPC      H2R            28.0408026054       15.4215207526       13.3415673690  MEMB      45              0.0000000000
      5994        51  POPC      H2S            27.9815036066       17.1184976912       12.7646292861  MEMB      45              0.0000000000
      5995        51  POPC      C3             24.9306207086       18.7815826458       14.7654458308  MEMB      45              0.0000000000
      5996        51  POPC      HX             24.3999906878       19.4797977334       15.4534231703  MEMB      45              0.0000000000
      5997        51  POPC      HY             24.1507261873       18.1881261873       14.2407039532  MEMB      45              0.0000000000
      5998        51  POPC      O31            25.7575354410       19.4487454432       13.8060967739  MEMB      45              0.0000000000
      5999        51  POPC      C31            25.4883647824       20.6957662337       13.5208684216  MEMB      45              0.0000000000
      6000        51  POPC      O32            24.6219839051       21.3847486525       14.0348263497  MEMB      45              0.0000000000
      6001        51  POPC      C32            26.4807572277       21.1606215709       12.4555526121  MEMB      45              0.0000000000
      6002        51  POPC      H2X            27.3262618599       21.6307518020       12.9965447843  MEMB      45              0.0000000000
      6003        51  POPC      H2Y            25.9533523559       21.9214782905       11.8469359824  MEMB      45              0.0000000000
      6004        51  POPC      C23            27.0711126979       15.6908559697       11.4007519114  MEMB      45              0.0000000000
      6005        51  POPC      H3R            26.1070318730       15.1364283246       11.3707787944  MEMB      45              0.0000000000
      6006        51  POPC      H3S            27.8792820170       14.9836383352       11.1006385956  MEMB      45              0.0000000000
      6007        51  POPC      C24            27.1007446522       16.8257345355       10.3712293758  MEMB      45              0.0000000000
      6008        51  POPC      H4R            28.0461116778       17.4011503921       10.5051773143  MEMB      45              0.0000000000
      6009        51  POPC      H4S            26.2432886462       17.5086731187       10.5556511296  MEMB      45              0.0000000000
      6010        51  POPC      C25            27.0628404304       16.3282731905        8.9207918694  MEMB      45              0.0000000000
      6011        51  POPC      H5R            27.8485598620       15.5592108873        8.7572185101  MEMB      45              0.0000000000
      6012        51  POPC      H5S            27.2902634023       17.1861837826        8.2501226465  MEMB      45              0.0000000000
      6013        51  POPC      C26            25.6911611418       15.7755816112        8.5300152340  MEMB      45              0.0000000000
      6014        51  POPC      H6R            24.9375356608       16.5662604926        8.7482946319  MEMB      45              0.0000000000
      6015        51  POPC      H6S            25.4355997010       14.8915854128        9.1536961092  MEMB      45              0.0000000000
      6016        51  POPC      C27            25.6205521870       15.4003174661        7.0437683219  MEMB      45              0.0000000000
      6017        51  POPC      H7R            26.3445343883       14.5783303399        6.8411474359  MEMB      45              0.0000000000
      6018        51  POPC      H7S            25.9419924082       16.2779597076        6.4390417651  MEMB      45              0.0000000000
      6019        51  POPC      C28            24.2164669432       14.9481853856        6.5993961176  MEMB      45              0.0000000000
      6020        51  POPC      H8R            23.9668217100       14.0157247201        7.1547519430  MEMB      45              0.0000000000
      6021        51  POPC      H8S            24.2531022141       14.6706962450        5.5251430403  MEMB      45              0.0000000000
      6022        51  POPC      C29            23.1419302667       15.9764124527        6.8377423752  MEMB      45              0.0000000000
      6023        51  POPC      H91            22.4604816328       15.7381074177        7.6681256193  MEMB      45              0.0000000000
      6024        51  POPC      C210           22.9657944922       17.1442551377        6.1960052896  MEMB      45              0.0000000000
      6025        51  POPC      H101           22.1275037038       17.7793456209        6.5166115488  MEMB      45              0.0000000000
      6026        51  POPC      C211           23.7859025065       17.7379446577        5.0767838216  MEMB      45              0.0000000000
      6027        51  POPC      H11R           23.1774981608       17.7783100192        4.1458280004  MEMB      45              0.0000000000
      6028        51  POPC      H11S           24.6943796595       17.1417646766        4.8448196370  MEMB      45              0.0000000000
      6029        51  POPC      C212           24.2051764175       19.1710844363        5.4513315100  MEMB      45              0.0000000000
      6030        51  POPC      H12R           24.8944750569       19.1548595250        6.3255105581  MEMB      45              0.0000000000
      6031        51  POPC      H12S           23.3036233770       19.7423017151        5.7584566778  MEMB      45              0.0000000000
      6032        51  POPC      C213           24.8456209261       19.9561526791        4.2978394196  MEMB      45              0.0000000000
      6033        51  POPC      H13R           24.8030149950       21.0397160962        4.5572499489  MEMB      45              0.0000000000
      6034        51  POPC      H13S           24.2547042634       19.8133744764        3.3679299914  MEMB      45              0.0000000000
      6035        51  POPC      C214           26.3121919243       19.5869483762        4.0597045554  MEMB      45              0.0000000000
      6036        51  POPC      H14R           26.3738413614       18.6002404803        3.5518150809  MEMB      45              0.0000000000
      6037        51  POPC      H14S           26.7939967642       19.4768832586        5.0559036685  MEMB      45              0.0000000000
      6038        51  POPC      C215           27.0769691676       20.6583629561        3.2664014564  MEMB      45              0.0000000000
      6039        51  POPC      H15R           28.1690446425       20.4493495505        3.3050092473  MEMB      45              0.0000000000
      6040        51  POPC      H15S           26.9164521541       21.6388925407        3.7716359158  MEMB      45              0.0000000000
      6041        51  POPC      C216           26.6403187539       20.7764355083        1.7975285394  MEMB      45              0.0000000000
      6042        51  POPC      H16R           26.5944929474       21.8560055958        1.5239882359  MEMB      45              0.0000000000
      6043        51  POPC      H16S           25.6155084860       20.3653457546        1.6717351520  MEMB      45              0.0000000000
      6044        51  POPC      C217           27.5980609553       20.0887945123        0.8106888379  MEMB      45              0.0000000000
      6045        51  POPC      H17R           28.5556671519       20.6572391195        0.8174302045  MEMB      45              0.0000000000
      6046        51  POPC      H17S           27.1689098677       20.1779682420       -0.2135788272  MEMB      45              0.0000000000
      6047        51  POPC      C218           27.9029230713       18.6164107812        1.1127819695  MEMB      45              0.0000000000
      6048        51  POPC      H18R           26.9691869380       18.0314331535        1.2454708409  MEMB      45              0.0000000000
      6049        51  POPC      H18S           28.5005424266       18.5206758877        2.0442582976  MEMB      45              0.0000000000
      6050        51  POPC      H18T           28.4847859075       18.1627990867        0.2813786267  MEMB      45              0.0000000000
      6051        51  POPC      C33            27.0249657689       20.0413826628       11.5316878678  MEMB      45              0.0000000000
      6052        51  POPC      H3X            26.1914445471       19.6581433923       10.9020452738  MEMB      45              0.0000000000
      6053        51  POPC      H3Y            27.4058278522       19.1955275527       12.1480420790  MEMB      45              0.0000000000
      6054        51  POPC      C34            28.1872619493       20.4968711722       10.6354755629  MEMB      45              0.0000000000
      6055        51  POPC      H4X            29.0790983951       19.8615552012       10.8424728694  MEMB      45              0.0000000000
      6056        51  POPC      H4Y            28.4644057878       21.5425233551       10.8937737510  MEMB      45              0.0000000000
      6057        51  POPC      C35            27.8793496085       20.4114966651        9.1328284142  MEMB      45              0.0000000000
      6058        51  POPC      H5X            26.9731681356       21.0115527819        8.9020737069  MEMB      45              0.0000000000
      6059        51  POPC      H5Y            27.6351677777       19.3629008490        8.8607978295  MEMB      45              0.0000000000
      6060        51  POPC      C36            29.0486881131       20.9130519521        8.2736658963  MEMB      45              0.0000000000
      6061        51  POPC      H6X            29.7080593164       21.5624453393        8.8920290480  MEMB      45              0.0000000000
      6062        51  POPC      H6Y            28.6480965678       21.5429796126        7.4460693988  MEMB      45              0.0000000000
      6063        51  POPC      C37            29.8757232553       19.7743670626        7.6618661020  MEMB      45              0.0000000000
      6064        51  POPC      H7X            30.1308537955       19.0317651127        8.4502975312  MEMB      45              0.0000000000
      6065        51  POPC      H7Y            30.8324827667       20.1830270918        7.2655154390  MEMB      45              0.0000000000
      6066        51  POPC      C38            29.1326450073       19.0842202101        6.5139073222  MEMB      45              0.0000000000
      6067        51  POPC      H8X            28.7878639363       19.8524775611        5.7848463124  MEMB      45              0.0000000000
      6068        51  POPC      H8Y            28.2290010703       18.5748967252        6.9108783134  MEMB      45              0.0000000000
      6069        51  POPC      C39            29.9977368941       18.0650120243        5.7714910550  MEMB      45              0.0000000000
      6070        51  POPC      H9X            30.6813401711       17.5563562137        6.4882434030  MEMB      45              0.0000000000
      6071        51  POPC      H9Y            30.6146325159       18.6213146787        5.0324566788  MEMB      45              0.0000000000
      6072        51  POPC      C310           29.1575339891       17.0031580359        5.0567777763  MEMB      45              0.0000000000
      6073        51  POPC      H10X           28.4174244175       17.5151048942        4.4014283911  MEMB      45              0.0000000000
      6074        51  POPC      H10Y           28.5875088213       16.4221464420        5.8173468518  MEMB      45              0.0000000000
      6075        51  POPC      C311           30.0075171188       16.0424176425        4.2147934075  MEMB      45              0.0000000000
      6076        51  POPC      H11X           30.8686567848       15.6813088613        4.8216300421  MEMB      45              0.0000000000
      6077        51  POPC      H11Y           30.4123508127       16.5954611904        3.3376774894  MEMB      45              0.0000000000
      6078        51  POPC      C312           29.2285392896       14.8252049520        3.7036369268  MEMB      45              0.0000000000
      6079        51  POPC      H12X           28.8846673762       14.2213338487        4.5734492906  MEMB      45              0.0000000000
      6080        51  POPC      H12Y           29.9069320707       14.1924243175        3.0909502104  MEMB      45              0.0000000000
      6081        51  POPC      C313           28.0203147021       15.2041274348        2.8499291797  MEMB      45              0.0000000000
      6082        51  POPC      H13X           28.3431942036       15.8552874722        2.0075698578  MEMB      45              0.0000000000
      6083        51  POPC      H13Y           27.3327619076       15.8101744016        3.4767386821  MEMB      45              0.0000000000
      6084        51  POPC      C314           27.2814258868       13.9814452715        2.2894819611  MEMB      45              0.0000000000
      6085        51  POPC      H14X           27.1493404162       13.2217481751        3.0916112680  MEMB      45              0.0000000000
      6086        51  POPC      H14Y           27.8949341198       13.5212362397        1.4820554231  MEMB      45              0.0000000000
      6087        51  POPC      C315           25.9086045920       14.3718389382        1.7389148346  MEMB      45              0.0000000000
      6088        51  POPC      H15X           25.4959608963       13.5436432692        1.1177300637  MEMB      45              0.0000000000
      6089        51  POPC      H15Y           26.0515802692       15.2498519761        1.0686119957  MEMB      45              0.0000000000
      6090        51  POPC      C316           24.9051664593       14.7211363653        2.8414169378  MEMB      45              0.0000000000
      6091        51  POPC      H16X           25.3682801435       15.3332995143        3.6400825538  MEMB      45              0.0000000000
      6092        51  POPC      H16Y           24.4973765936       13.8000414577        3.3101919209  MEMB      45              0.0000000000
      6093        51  POPC      H16Z           24.0663167332       15.3155601404        2.4370766316  MEMB      45              0.0000000000
      6094        52  POPC      N              -2.0351899454      -31.8227711165       17.7384831111  MEMB      46              0.0000000000
      6095        52  POPC      C12            -0.9821543435      -32.0825626988       18.8204432384  MEMB      46              0.0000000000
      6096        52  POPC      H12A           -0.0682069881      -31.5553390632       18.5398412244  MEMB      46              0.0000000000
      6097        52  POPC      H12B           -0.7358034243      -33.1365903443       18.8256190648  MEMB      46              0.0000000000
      6098        52  POPC      C13            -3.2194379452      -32.7230531096       17.9072421516  MEMB      46              0.0000000000
      6099        52  POPC      H13A           -2.9175464896      -33.7680062800       17.7995716653  MEMB      46              0.0000000000
      6100        52  POPC      H13B           -3.6781525243      -32.5977835927       18.8811079655  MEMB      46              0.0000000000
      6101        52  POPC      H13C           -3.9543252297      -32.5196446353       17.1374298063  MEMB      46              0.0000000000
      6102        52  POPC      C14            -2.4211253511      -30.3884892533       17.8135586473  MEMB      46              0.0000000000
      6103        52  POPC      H14A           -1.5148179928      -29.7859871133       17.7530170662  MEMB      46              0.0000000000
      6104        52  POPC      H14B           -3.1144141936      -30.0968977922       17.0376750778  MEMB      46              0.0000000000
      6105        52  POPC      H14C           -2.8362209366      -30.1671754085       18.7907450995  MEMB      46              0.0000000000
      6106        52  POPC      C15            -1.4447197300      -32.0661472923       16.3774545097  MEMB      46              0.0000000000
      6107        52  POPC      H15A           -2.1395872523      -31.8017550318       15.5841642561  MEMB      46              0.0000000000
      6108        52  POPC      H15B           -1.2196617190      -33.1196017650       16.2480775806  MEMB      46              0.0000000000
      6109        52  POPC      H15C           -0.5326200874      -31.4972110083       16.2456376944  MEMB      46              0.0000000000
      6110        52  POPC      C11            -1.2648631585      -31.6057421609       20.2828686488  MEMB      46              0.0000000000
      6111        52  POPC      H11A           -0.5446815052      -32.1139359793       20.9663535488  MEMB      46              0.0000000000
      6112        52  POPC      H11B           -2.2766316634      -31.9552253973       20.5816492392  MEMB      46              0.0000000000
      6113        52  POPC      P               0.2312801387      -29.4297569013       20.4655394285  MEMB      46              0.0000000000
      6114        52  POPC      O13             1.1270561593      -29.9757115373       21.5285985058  MEMB      46              0.0000000000
      6115        52  POPC      O14             0.0381138652      -27.9644993623       20.3475030284  MEMB      46              0.0000000000
      6116        52  POPC      O12            -1.1956213436      -30.1834694826       20.4593418755  MEMB      46              0.0000000000
      6117        52  POPC      O11             0.7892529403      -29.9536335371       19.0971120545  MEMB      46              0.0000000000
      6118        52  POPC      C1              2.1275384288      -30.3858759872       18.8682413133  MEMB      46              0.0000000000
      6119        52  POPC      HA              2.2059831588      -31.4816669531       19.0351792967  MEMB      46              0.0000000000
      6120        52  POPC      HB              2.8397983521      -29.8836065784       19.5647684703  MEMB      46              0.0000000000
      6121        52  POPC      C2              2.6035150059      -30.0455482346       17.4207250609  MEMB      46              0.0000000000
      6122        52  POPC      HS              3.5043497871      -29.4033689582       17.5205126517  MEMB      46              0.0000000000
      6123        52  POPC      O21             1.5821896298      -29.3674562010       16.6705420302  MEMB      46              0.0000000000
      6124        52  POPC      C21             1.5014754093      -28.0784894583       16.9323772545  MEMB      46              0.0000000000
      6125        52  POPC      O22             2.1856592227      -27.4310020138       17.7031686386  MEMB      46              0.0000000000
      6126        52  POPC      C22             0.5357705741      -27.4496367367       15.9312019019  MEMB      46              0.0000000000
      6127        52  POPC      H2R             0.9274740636      -27.6569795577       14.9130405125  MEMB      46              0.0000000000
      6128        52  POPC      H2S             0.5855702260      -26.3609360134       16.0986923284  MEMB      46              0.0000000000
      6129        52  POPC      C3              3.0741324035      -31.2709067779       16.5695045641  MEMB      46              0.0000000000
      6130        52  POPC      HX              2.3847268863      -32.1162664198       16.7866970612  MEMB      46              0.0000000000
      6131        52  POPC      HY              4.0931066977      -31.5757915851       16.9013736630  MEMB      46              0.0000000000
      6132        52  POPC      O31             3.0640677200      -31.0536740020       15.1359920936  MEMB      46              0.0000000000
      6133        52  POPC      C31             3.6880546171      -29.9830176539       14.6607170695  MEMB      46              0.0000000000
      6134        52  POPC      O32             4.2710625421      -29.1350811485       15.3103849133  MEMB      46              0.0000000000
      6135        52  POPC      C32             3.5706419876      -29.9137527454       13.1407345902  MEMB      46              0.0000000000
      6136        52  POPC      H2X             2.6776031866      -29.3022098409       12.8970455161  MEMB      46              0.0000000000
      6137        52  POPC      H2Y             3.4212896527      -30.9426883126       12.7521543269  MEMB      46              0.0000000000
      6138        52  POPC      C23            -0.9202587024      -27.9472020683       16.0469842371  MEMB      46              0.0000000000
      6139        52  POPC      H3R            -1.2238963459      -27.9472826525       17.1193523122  MEMB      46              0.0000000000
      6140        52  POPC      H3S            -0.9637561041      -28.9935276091       15.6660348970  MEMB      46              0.0000000000
      6141        52  POPC      C24            -1.9302389367      -27.0859978732       15.2673097354  MEMB      46              0.0000000000
      6142        52  POPC      H4R            -2.1352396844      -26.1812814383       15.8822338764  MEMB      46              0.0000000000
      6143        52  POPC      H4S            -2.8799116434      -27.6533517395       15.1627909544  MEMB      46              0.0000000000
      6144        52  POPC      C25            -1.4627620797      -26.6100027418       13.8821233630  MEMB      46              0.0000000000
      6145        52  POPC      H5R            -0.5412175276      -26.0044157917       14.0206069629  MEMB      46              0.0000000000
      6146        52  POPC      H5S            -2.2244150938      -25.9267989169       13.4416616554  MEMB      46              0.0000000000
      6147        52  POPC      C26            -1.1165529785      -27.7137528003       12.8718465899  MEMB      46              0.0000000000
      6148        52  POPC      H6R            -0.6574832937      -28.5929408743       13.3691077091  MEMB      46              0.0000000000
      6149        52  POPC      H6S            -0.3492835843      -27.2928453474       12.1795195150  MEMB      46              0.0000000000
      6150        52  POPC      C27            -2.3089400302      -28.1382541999       12.0075572207  MEMB      46              0.0000000000
      6151        52  POPC      H7R            -2.8854357633      -27.2221831854       11.7376615157  MEMB      46              0.0000000000
      6152        52  POPC      H7S            -2.9918455295      -28.8009651175       12.5833460585  MEMB      46              0.0000000000
      6153        52  POPC      C28            -1.8877852799      -28.7955176010       10.6810370407  MEMB      46              0.0000000000
      6154        52  POPC      H8R            -1.2211099771      -28.0744742824       10.1567436004  MEMB      46              0.0000000000
      6155        52  POPC      H8S            -2.8092608561      -28.9202860702       10.0672549969  MEMB      46              0.0000000000
      6156        52  POPC      C29            -1.2119643973      -30.1287895956       10.8619854058  MEMB      46              0.0000000000
      6157        52  POPC      H91            -1.4346657971      -30.6169462979       11.8245969565  MEMB      46              0.0000000000
      6158        52  POPC      C210           -0.4055453714      -30.7574487380        9.9840354134  MEMB      46              0.0000000000
      6159        52  POPC      H101           -0.0044425265      -31.7427883564       10.2711904785  MEMB      46              0.0000000000
      6160        52  POPC      C211            0.0243504142      -30.3030499309        8.6052002918  MEMB      46              0.0000000000
      6161        52  POPC      H11R            0.2500392984      -31.2138269909        8.0042226383  MEMB      46              0.0000000000
      6162        52  POPC      H11S            0.9745356731      -29.7258811731        8.6705833723  MEMB      46              0.0000000000
      6163        52  POPC      C212           -0.9793670660      -29.4865457017        7.7646171117  MEMB      46              0.0000000000
      6164        52  POPC      H12R           -1.0006867367      -28.4300965158        8.1076471265  MEMB      46              0.0000000000
      6165        52  POPC      H12S           -1.9987573167      -29.9130416198        7.9050462511  MEMB      46              0.0000000000
      6166        52  POPC      C213           -0.6647119458      -29.4961054827        6.2626420008  MEMB      46              0.0000000000
      6167        52  POPC      H13R           -0.6015266800      -30.5521167915        5.9150162153  MEMB      46              0.0000000000
      6168        52  POPC      H13S            0.3207257550      -29.0150580701        6.0761650134  MEMB      46              0.0000000000
      6169        52  POPC      C214           -1.7609685511      -28.7756169146        5.4694750691  MEMB      46              0.0000000000
      6170        52  POPC      H14R           -1.7320420103      -27.6913788598        5.7097417089  MEMB      46              0.0000000000
      6171        52  POPC      H14S           -2.7485140767      -29.1642653990        5.8133473347  MEMB      46              0.0000000000
      6172        52  POPC      C215           -1.6776364154      -28.9861224666        3.9515086339  MEMB      46              0.0000000000
      6173        52  POPC      H15R           -2.6718152862      -28.7180980067        3.5275871812  MEMB      46              0.0000000000
      6174        52  POPC      H15S           -1.4994810139      -30.0622793869        3.7357279452  MEMB      46              0.0000000000
      6175        52  POPC      C216           -0.5987096814      -28.1296194835        3.2724543938  MEMB      46              0.0000000000
      6176        52  POPC      H16R            0.3987851217      -28.4054936271        3.6811398352  MEMB      46              0.0000000000
      6177        52  POPC      H16S           -0.7830189187      -27.0619537642        3.5285935754  MEMB      46              0.0000000000
      6178        52  POPC      C217           -0.5707808928      -28.2594322775        1.7400082879  MEMB      46              0.0000000000
      6179        52  POPC      H17R           -0.2453969692      -29.2862893035        1.4633008971  MEMB      46              0.0000000000
      6180        52  POPC      H17S            0.1938513366      -27.5532444043        1.3454786174  MEMB      46              0.0000000000
      6181        52  POPC      C218           -1.9042069223      -27.9576861625        1.0554303096  MEMB      46              0.0000000000
      6182        52  POPC      H18R           -2.6656402895      -28.7233624094        1.3143542185  MEMB      46              0.0000000000
      6183        52  POPC      H18S           -1.7869353226      -27.9355717622       -0.0486064750  MEMB      46              0.0000000000
      6184        52  POPC      H18T           -2.2857876704      -26.9732018355        1.3846694020  MEMB      46              0.0000000000
      6185        52  POPC      C33             4.8409938550      -29.2735597029       12.5199723556  MEMB      46              0.0000000000
      6186        52  POPC      H3X             5.7093017691      -29.9396946963       12.7230755182  MEMB      46              0.0000000000
      6187        52  POPC      H3Y             5.0731648637      -28.2954363326       12.9988802669  MEMB      46              0.0000000000
      6188        52  POPC      C34             4.7783712617      -29.0512319718       11.0005204045  MEMB      46              0.0000000000
      6189        52  POPC      H4X             5.8220092457      -29.0338023607       10.6118836077  MEMB      46              0.0000000000
      6190        52  POPC      H4Y             4.3323125272      -28.0651464957       10.7640583529  MEMB      46              0.0000000000
      6191        52  POPC      C35             3.9659391652      -30.1112957995       10.2573257700  MEMB      46              0.0000000000
      6192        52  POPC      H5X             2.8821609302      -29.9659081210       10.4729475032  MEMB      46              0.0000000000
      6193        52  POPC      H5Y             4.2483992117      -31.1137711303       10.6304709935  MEMB      46              0.0000000000
      6194        52  POPC      C36             4.1830006040      -30.0688360392        8.7463994283  MEMB      46              0.0000000000
      6195        52  POPC      H6X             5.2695419072      -30.1150562871        8.5102542534  MEMB      46              0.0000000000
      6196        52  POPC      H6Y             3.7955268529      -29.0958951287        8.3665530292  MEMB      46              0.0000000000
      6197        52  POPC      C37             3.4563583901      -31.2230194135        8.0475272965  MEMB      46              0.0000000000
      6198        52  POPC      H7X             2.5273275533      -31.4483169194        8.6175842719  MEMB      46              0.0000000000
      6199        52  POPC      H7Y             4.0830045339      -32.1422332718        8.0716602215  MEMB      46              0.0000000000
      6200        52  POPC      C38             3.0597005366      -30.8815092661        6.6091553176  MEMB      46              0.0000000000
      6201        52  POPC      H8X             2.5221116560      -29.9079287983        6.5949546352  MEMB      46              0.0000000000
      6202        52  POPC      H8Y             2.3516388970      -31.6575287526        6.2422283849  MEMB      46              0.0000000000
      6203        52  POPC      C39             4.2641460633      -30.8202179665        5.6645691683  MEMB      46              0.0000000000
      6204        52  POPC      H9X             4.6702433466      -31.8477329937        5.5872673168  MEMB      46              0.0000000000
      6205        52  POPC      H9Y             5.0644814903      -30.1877862996        6.1103296710  MEMB      46              0.0000000000
      6206        52  POPC      C310            3.9362999334      -30.2702290636        4.2666526978  MEMB      46              0.0000000000
      6207        52  POPC      H10X            4.8023882239      -30.4577591123        3.5925322173  MEMB      46              0.0000000000
      6208        52  POPC      H10Y            3.8136547440      -29.1659170714        4.3592314733  MEMB      46              0.0000000000
      6209        52  POPC      C311            2.6543967129      -30.8236185126        3.6163191501  MEMB      46              0.0000000000
      6210        52  POPC      H11X            2.5193902616      -30.3195325950        2.6342981495  MEMB      46              0.0000000000
      6211        52  POPC      H11Y            1.7756422054      -30.5529421782        4.2432058847  MEMB      46              0.0000000000
      6212        52  POPC      C312            2.6503842941      -32.3423680237        3.3894903328  MEMB      46              0.0000000000
      6213        52  POPC      H12X            2.8413095900      -32.8530571978        4.3578160457  MEMB      46              0.0000000000
      6214        52  POPC      H12Y            3.4725590692      -32.6147933621        2.6900712652  MEMB      46              0.0000000000
      6215        52  POPC      C313            1.3154388169      -32.8728325622        2.8405385217  MEMB      46              0.0000000000
      6216        52  POPC      H13X            0.5178627947      -32.6847371447        3.5937159241  MEMB      46              0.0000000000
      6217        52  POPC      H13Y            1.4063410700      -33.9723984068        2.6998271012  MEMB      46              0.0000000000
      6218        52  POPC      C314            0.9140659396      -32.2633251720        1.4919239492  MEMB      46              0.0000000000
      6219        52  POPC      H14X            1.7267009264      -32.4806346574        0.7672274074  MEMB      46              0.0000000000
      6220        52  POPC      H14Y            0.8331260379      -31.1595860367        1.5798597940  MEMB      46              0.0000000000
      6221        52  POPC      C315           -0.4136518450      -32.8070979158        0.9484397971  MEMB      46              0.0000000000
      6222        52  POPC      H15X           -0.3917565469      -33.9205727325        0.9644798704  MEMB      46              0.0000000000
      6223        52  POPC      H15Y           -0.5153727889      -32.4933712910       -0.1154121737  MEMB      46              0.0000000000
      6224        52  POPC      C316           -1.6388899429      -32.3002548205        1.7094564834  MEMB      46              0.0000000000
      6225        52  POPC      H16X           -1.6253791407      -32.6535499668        2.7617655319  MEMB      46              0.0000000000
      6226        52  POPC      H16Y           -2.5699124533      -32.6626706713        1.2267177371  MEMB      46              0.0000000000
      6227        52  POPC      H16Z           -1.6626373837      -31.1903476083        1.7124741654  MEMB      46              0.0000000000
      6228        53  POPC      N              11.5747592356      -28.0792855899       20.9347279642  MEMB      47              0.0000000000
      6229        53  POPC      C12            11.9879970411      -29.2167215539       20.0065275110  MEMB      47              0.0000000000
      6230        53  POPC      H12A           12.3295417086      -28.7900439272       19.0659026963  MEMB      47              0.0000000000
      6231        53  POPC      H12B           11.1244843759      -29.8310168359       19.8016980820  MEMB      47              0.0000000000
      6232        53  POPC      C13            11.0384316039      -28.6742222537       22.2006776620  MEMB      47              0.0000000000
      6233        53  POPC      H13A           11.8139561869      -29.2456333913       22.7208179871  MEMB      47              0.0000000000
      6234        53  POPC      H13B           10.7189616727      -27.9232127577       22.9061190051  MEMB      47              0.0000000000
      6235        53  POPC      H13C           10.2086265629      -29.3526979233       22.0228629169  MEMB      47              0.0000000000
      6236        53  POPC      C14            12.7415778218      -27.2119403993       21.2874385244  MEMB      47              0.0000000000
      6237        53  POPC      H14A           13.2538360016      -26.8327934810       20.4109495515  MEMB      47              0.0000000000
      6238        53  POPC      H14B           12.4821766598      -26.3639026874       21.9100419286  MEMB      47              0.0000000000
      6239        53  POPC      H14C           13.5065031023      -27.8030459865       21.7950504431  MEMB      47              0.0000000000
      6240        53  POPC      C15            10.5107517725      -27.2488532180       20.2932317074  MEMB      47              0.0000000000
      6241        53  POPC      H15A            9.6491200607      -27.8547351256       20.0320647730  MEMB      47              0.0000000000
      6242        53  POPC      H15B           10.8858433122      -26.7254357169       19.4145636371  MEMB      47              0.0000000000
      6243        53  POPC      H15C           10.1791357646      -26.4732566677       20.9823379171  MEMB      47              0.0000000000
      6244        53  POPC      C11            13.1247177168      -30.1734911835       20.4483559413  MEMB      47              0.0000000000
      6245        53  POPC      H11A           13.1270749418      -31.0845114898       19.8010929977  MEMB      47              0.0000000000
      6246        53  POPC      H11B           12.9394541678      -30.5323516274       21.4862180470  MEMB      47              0.0000000000
      6247        53  POPC      P              15.0697869213      -29.2310963180       18.9867730668  MEMB      47              0.0000000000
      6248        53  POPC      O13            15.2286744833      -30.5214985968       18.2839767035  MEMB      47              0.0000000000
      6249        53  POPC      O14            16.2970760213      -28.4337465574       19.2330122353  MEMB      47              0.0000000000
      6250        53  POPC      O12            14.3865976354      -29.5272451036       20.3849067228  MEMB      47              0.0000000000
      6251        53  POPC      O11            13.9799671601      -28.3427902229       18.2238517579  MEMB      47              0.0000000000
      6252        53  POPC      C1             14.0332610486      -26.9090685873       18.2186296741  MEMB      47              0.0000000000
      6253        53  POPC      HA             14.7954543514      -26.5168863926       18.9397475612  MEMB      47              0.0000000000
      6254        53  POPC      HB             13.0700589317      -26.5007960706       18.5650349035  MEMB      47              0.0000000000
      6255        53  POPC      C2             14.4330095867      -26.2777903489       16.8366381224  MEMB      47              0.0000000000
      6256        53  POPC      HS             14.7592602804      -25.2353641115       17.0574131069  MEMB      47              0.0000000000
      6257        53  POPC      O21            13.4191274040      -26.2209156487       15.8028081342  MEMB      47              0.0000000000
      6258        53  POPC      C21            12.3048105742      -25.5703900866       16.0693516445  MEMB      47              0.0000000000
      6259        53  POPC      O22            11.9823304417      -25.0915975032       17.1374236418  MEMB      47              0.0000000000
      6260        53  POPC      C22            11.3813076692      -25.5776775464       14.8588908156  MEMB      47              0.0000000000
      6261        53  POPC      H2R            11.9732445626      -25.3871785356       13.9405144870  MEMB      47              0.0000000000
      6262        53  POPC      H2S            10.6520268420      -24.7545827914       14.9942833254  MEMB      47              0.0000000000
      6263        53  POPC      C3             15.6538574237      -27.0435628178       16.2583641314  MEMB      47              0.0000000000
      6264        53  POPC      HX             16.3108345734      -27.3592671331       17.0924954054  MEMB      47              0.0000000000
      6265        53  POPC      HY             16.2606249670      -26.3289799537       15.6764446237  MEMB      47              0.0000000000
      6266        53  POPC      O31            15.2580359685      -28.2057925161       15.5012686021  MEMB      47              0.0000000000
      6267        53  POPC      C31            15.3107648559      -28.0107115894       14.1924098622  MEMB      47              0.0000000000
      6268        53  POPC      O32            15.8321417040      -27.0588235058       13.6342254157  MEMB      47              0.0000000000
      6269        53  POPC      C32            14.6348709413      -29.1661619532       13.4820174958  MEMB      47              0.0000000000
      6270        53  POPC      H2X            13.5533194606      -29.1191929578       13.7274499720  MEMB      47              0.0000000000
      6271        53  POPC      H2Y            15.0557220250      -30.1192031168       13.8676243086  MEMB      47              0.0000000000
      6272        53  POPC      C23            10.6585801274      -26.9316153517       14.7755096251  MEMB      47              0.0000000000
      6273        53  POPC      H3R            10.2679201932      -27.2213826577       15.7787453449  MEMB      47              0.0000000000
      6274        53  POPC      H3S            11.4138769241      -27.6907852951       14.4666158835  MEMB      47              0.0000000000
      6275        53  POPC      C24             9.4817872065      -26.9831581740       13.7959811738  MEMB      47              0.0000000000
      6276        53  POPC      H4R             8.7284164297      -26.2213407659       14.0955533167  MEMB      47              0.0000000000
      6277        53  POPC      H4S             9.0010436011      -27.9862443774       13.8793683943  MEMB      47              0.0000000000
      6278        53  POPC      C25             9.8721927148      -26.7514117218       12.3290280892  MEMB      47              0.0000000000
      6279        53  POPC      H5R            10.3328195150      -25.7430270823       12.2543404847  MEMB      47              0.0000000000
      6280        53  POPC      H5S             8.9441438112      -26.7458612340       11.7151351591  MEMB      47              0.0000000000
      6281        53  POPC      C26            10.8222700275      -27.8065333780       11.7366054698  MEMB      47              0.0000000000
      6282        53  POPC      H6R            10.3389889514      -28.8049201488       11.8396077579  MEMB      47              0.0000000000
      6283        53  POPC      H6S            11.7756941589      -27.8201835750       12.3082874907  MEMB      47              0.0000000000
      6284        53  POPC      C27            11.1315722653      -27.5886453354       10.2476622059  MEMB      47              0.0000000000
      6285        53  POPC      H7R            10.1600398203      -27.6026625018        9.7135942850  MEMB      47              0.0000000000
      6286        53  POPC      H7S            11.7242994471      -28.4480931190        9.8627515206  MEMB      47              0.0000000000
      6287        53  POPC      C28            11.8982118457      -26.2795880071        9.9673921595  MEMB      47              0.0000000000
      6288        53  POPC      H8R            12.9421323577      -26.4186734196       10.3300149865  MEMB      47              0.0000000000
      6289        53  POPC      H8S            11.4639179170      -25.4577547395       10.5700012654  MEMB      47              0.0000000000
      6290        53  POPC      C29            11.8271777026      -25.8784692508        8.5166529550  MEMB      47              0.0000000000
      6291        53  POPC      H91            10.8250176241      -25.9368213133        8.0677638804  MEMB      47              0.0000000000
      6292        53  POPC      C210           12.8483481560      -25.4568619351        7.7569116863  MEMB      47              0.0000000000
      6293        53  POPC      H101           12.6562155668      -25.2164053500        6.7007638367  MEMB      47              0.0000000000
      6294        53  POPC      C211           14.2782643823      -25.2963038337        8.1980387056  MEMB      47              0.0000000000
      6295        53  POPC      H11R           14.3685766556      -25.1328966893        9.2965162009  MEMB      47              0.0000000000
      6296        53  POPC      H11S           14.7400681610      -24.4150862188        7.7034539359  MEMB      47              0.0000000000
      6297        53  POPC      C212           15.0612790891      -26.5546989144        7.8238617797  MEMB      47              0.0000000000
      6298        53  POPC      H12R           14.9584170363      -26.7340436456        6.7327652740  MEMB      47              0.0000000000
      6299        53  POPC      H12S           14.6315755044      -27.4295299421        8.3593525954  MEMB      47              0.0000000000
      6300        53  POPC      C213           16.5387353258      -26.4786669955        8.1949329674  MEMB      47              0.0000000000
      6301        53  POPC      H13R           16.5910176678      -26.4719637806        9.3053352664  MEMB      47              0.0000000000
      6302        53  POPC      H13S           16.9717574979      -25.5210321299        7.8318262675  MEMB      47              0.0000000000
      6303        53  POPC      C214           17.3575247409      -27.6651999714        7.6635214643  MEMB      47              0.0000000000
      6304        53  POPC      H14R           16.9998410600      -28.6012818735        8.1493554801  MEMB      47              0.0000000000
      6305        53  POPC      H14S           18.4164835755      -27.5243345899        7.9710696141  MEMB      47              0.0000000000
      6306        53  POPC      C215           17.3014597215      -27.8499026866        6.1348151755  MEMB      47              0.0000000000
      6307        53  POPC      H15R           16.3633846059      -28.3760844736        5.8607532869  MEMB      47              0.0000000000
      6308        53  POPC      H15S           18.1418354623      -28.5134668692        5.8367668314  MEMB      47              0.0000000000
      6309        53  POPC      C216           17.3847900560      -26.5379336392        5.3399239728  MEMB      47              0.0000000000
      6310        53  POPC      H16R           18.0366898945      -25.8344902397        5.8957943068  MEMB      47              0.0000000000
      6311        53  POPC      H16S           16.3846491146      -26.0576213957        5.2749472298  MEMB      47              0.0000000000
      6312        53  POPC      C217           17.9598228586      -26.7045402296        3.9291048860  MEMB      47              0.0000000000
      6313        53  POPC      H17R           18.9369975622      -27.2345195386        3.9897180197  MEMB      47              0.0000000000
      6314        53  POPC      H17S           18.1571851305      -25.6846918289        3.5260368168  MEMB      47              0.0000000000
      6315        53  POPC      C218           17.0349968782      -27.4407537719        2.9696689068  MEMB      47              0.0000000000
      6316        53  POPC      H18R           16.0777905878      -26.8887338232        2.8774455407  MEMB      47              0.0000000000
      6317        53  POPC      H18S           16.8194547506      -28.4641414039        3.3441129310  MEMB      47              0.0000000000
      6318        53  POPC      H18T           17.4903205304      -27.5133402930        1.9589036330  MEMB      47              0.0000000000
      6319        53  POPC      C33            14.8271439195      -29.0614804970       11.9537523600  MEMB      47              0.0000000000
      6320        53  POPC      H3X            15.9119406968      -29.0833559775       11.7048730292  MEMB      47              0.0000000000
      6321        53  POPC      H3Y            14.4129257660      -28.0934837933       11.5845462380  MEMB      47              0.0000000000
      6322        53  POPC      C34            14.1206382287      -30.2020247881       11.2204114090  MEMB      47              0.0000000000
      6323        53  POPC      H4X            13.0397923770      -30.1446482316       11.4751420338  MEMB      47              0.0000000000
      6324        53  POPC      H4Y            14.5119316489      -31.1763778512       11.5887347875  MEMB      47              0.0000000000
      6325        53  POPC      C35            14.2805184791      -30.1390172958        9.6969885042  MEMB      47              0.0000000000
      6326        53  POPC      H5X            15.3596345608      -30.1512063765        9.4301031151  MEMB      47              0.0000000000
      6327        53  POPC      H5Y            13.8521565385      -29.1810171671        9.3333910458  MEMB      47              0.0000000000
      6328        53  POPC      C36            13.5636908072      -31.3078263958        9.0108205628  MEMB      47              0.0000000000
      6329        53  POPC      H6X            12.4831959963      -31.2531813838        9.2654158447  MEMB      47              0.0000000000
      6330        53  POPC      H6Y            13.9702079197      -32.2572830576        9.4305550442  MEMB      47              0.0000000000
      6331        53  POPC      C37            13.7119705492      -31.3645147578        7.4828683463  MEMB      47              0.0000000000
      6332        53  POPC      H7X            13.4599929283      -32.4060494882        7.1721453617  MEMB      47              0.0000000000
      6333        53  POPC      H7Y            14.7648028405      -31.1757883673        7.1831544929  MEMB      47              0.0000000000
      6334        53  POPC      C38            12.7564258570      -30.4348848520        6.7172965739  MEMB      47              0.0000000000
      6335        53  POPC      H8X            11.7452395309      -30.4358307266        7.1725257470  MEMB      47              0.0000000000
      6336        53  POPC      H8Y            12.6545991873      -30.8410958023        5.6881763555  MEMB      47              0.0000000000
      6337        53  POPC      C39            13.2283840222      -28.9859012957        6.6297964993  MEMB      47              0.0000000000
      6338        53  POPC      H9X            14.3312756080      -28.9627114698        6.7719580650  MEMB      47              0.0000000000
      6339        53  POPC      H9Y            12.7661554884      -28.4090605449        7.4610516368  MEMB      47              0.0000000000
      6340        53  POPC      C310           12.9047818994      -28.3169734556        5.2899425627  MEMB      47              0.0000000000
      6341        53  POPC      H10X           13.1169821765      -27.2273443450        5.3773388188  MEMB      47              0.0000000000
      6342        53  POPC      H10Y           11.8243239852      -28.4340738832        5.0584243353  MEMB      47              0.0000000000
      6343        53  POPC      C311           13.7663579737      -28.8806968779        4.1543042311  MEMB      47              0.0000000000
      6344        53  POPC      H11X           13.4987251950      -29.9396082820        3.9489935170  MEMB      47              0.0000000000
      6345        53  POPC      H11Y           14.8283489333      -28.8688146679        4.4834813819  MEMB      47              0.0000000000
      6346        53  POPC      C312           13.6556748309      -28.0747511047        2.8627146016  MEMB      47              0.0000000000
      6347        53  POPC      H12X           14.4058238966      -28.4680732192        2.1369563352  MEMB      47              0.0000000000
      6348        53  POPC      H12Y           13.9002135607      -27.0086886008        3.0707327081  MEMB      47              0.0000000000
      6349        53  POPC      C313           12.2744091211      -28.1739809522        2.2220679307  MEMB      47              0.0000000000
      6350        53  POPC      H13X           11.5206336172      -27.6514681944        2.8523203787  MEMB      47              0.0000000000
      6351        53  POPC      H13Y           11.9790183661      -29.2469305975        2.1657035326  MEMB      47              0.0000000000
      6352        53  POPC      C314           12.2562718084      -27.5847144390        0.8117124935  MEMB      47              0.0000000000
      6353        53  POPC      H14X           11.2239805650      -27.6552366388        0.4202653123  MEMB      47              0.0000000000
      6354        53  POPC      H14Y           12.9074722062      -28.1974485151        0.1494109174  MEMB      47              0.0000000000
      6355        53  POPC      C315           12.6988094551      -26.1205564819        0.7318958043  MEMB      47              0.0000000000
      6356        53  POPC      H15X           13.7979219404      -26.0662328892        0.8957987280  MEMB      47              0.0000000000
      6357        53  POPC      H15Y           12.2082358275      -25.5394963514        1.5451836887  MEMB      47              0.0000000000
      6358        53  POPC      C316           12.3533064448      -25.4979502978       -0.6200469981  MEMB      47              0.0000000000
      6359        53  POPC      H16X           12.8751209305      -24.5319943045       -0.7710018702  MEMB      47              0.0000000000
      6360        53  POPC      H16Y           11.2576395765      -25.3419130909       -0.7160317676  MEMB      47              0.0000000000
      6361        53  POPC      H16Z           12.6504967805      -26.1796956729       -1.4341881628  MEMB      47              0.0000000000
      6362        54  POPC      N             -29.0686636706        6.1031263569       19.9104482665  MEMB      48              0.0000000000
      6363        54  POPC      C12           -29.4770978446        4.6669274355       19.6173203007  MEMB      48              0.0000000000
      6364        54  POPC      H12A          -29.5220468437        4.1462664305       20.5613776249  MEMB      48              0.0000000000
      6365        54  POPC      H12B          -28.7312918389        4.1773230938       19.0080795119  MEMB      48              0.0000000000
      6366        54  POPC      C13           -30.1335270673        6.7641397924       20.7493437962  MEMB      48              0.0000000000
      6367        54  POPC      H13A          -30.1169482875        7.8360333849       20.6070613121  MEMB      48              0.0000000000
      6368        54  POPC      H13B          -31.1056708806        6.4155867831       20.4061451035  MEMB      48              0.0000000000
      6369        54  POPC      H13C          -30.0745118624        6.5150414521       21.8034361640  MEMB      48              0.0000000000
      6370        54  POPC      C14           -27.8223657280        6.2008085649       20.7139935667  MEMB      48              0.0000000000
      6371        54  POPC      H14A          -26.9285175373        6.0365696894       20.1201621498  MEMB      48              0.0000000000
      6372        54  POPC      H14B          -27.7010879047        7.2295224702       21.0678948019  MEMB      48              0.0000000000
      6373        54  POPC      H14C          -27.8292018439        5.5714305536       21.5913275269  MEMB      48              0.0000000000
      6374        54  POPC      C15           -28.8856047853        6.9317632944       18.6760388715  MEMB      48              0.0000000000
      6375        54  POPC      H15A          -28.0371996882        6.6095372342       18.0735818245  MEMB      48              0.0000000000
      6376        54  POPC      H15B          -28.6475850779        7.9678385236       18.9317462424  MEMB      48              0.0000000000
      6377        54  POPC      H15C          -29.7738283073        6.9207896515       18.0555893102  MEMB      48              0.0000000000
      6378        54  POPC      C11           -30.8649635424        4.4108648317       18.9788751455  MEMB      48              0.0000000000
      6379        54  POPC      H11A          -30.9701613208        3.3147694258       18.7792761147  MEMB      48              0.0000000000
      6380        54  POPC      H11B          -30.8997091105        4.9367353736       18.0023354465  MEMB      48              0.0000000000
      6381        54  POPC      P             -33.4227232524        4.5123423060       19.5763344014  MEMB      48              0.0000000000
      6382        54  POPC      O13           -34.2665349250        5.5876526083       20.1521811047  MEMB      48              0.0000000000
      6383        54  POPC      O14           -33.6893810800        3.1614427550       20.1181354771  MEMB      48              0.0000000000
      6384        54  POPC      O12           -31.9058814959        4.8672938331       19.8425486529  MEMB      48              0.0000000000
      6385        54  POPC      O11           -33.3842077015        4.6036807021       17.9829471608  MEMB      48              0.0000000000
      6386        54  POPC      C1            -33.2642289589        5.8617453877       17.2905427738  MEMB      48              0.0000000000
      6387        54  POPC      HA            -32.5693566043        6.5616673921       17.8089614340  MEMB      48              0.0000000000
      6388        54  POPC      HB            -34.2651222506        6.3476838019       17.2706041730  MEMB      48              0.0000000000
      6389        54  POPC      C2            -32.7528173247        5.7426069323       15.7993923023  MEMB      48              0.0000000000
      6390        54  POPC      HS            -33.2217439452        4.8332011852       15.3625873207  MEMB      48              0.0000000000
      6391        54  POPC      O21           -31.3052763745        5.6604979729       15.7643265709  MEMB      48              0.0000000000
      6392        54  POPC      C21           -30.7631447630        5.1534148823       14.6500741755  MEMB      48              0.0000000000
      6393        54  POPC      O22           -31.3578180152        4.5565624092       13.7735309225  MEMB      48              0.0000000000
      6394        54  POPC      C22           -29.2625927192        5.5041016599       14.6457466742  MEMB      48              0.0000000000
      6395        54  POPC      H2R           -28.8536827918        5.1868255278       15.6296099513  MEMB      48              0.0000000000
      6396        54  POPC      H2S           -29.1713179663        6.6084318972       14.5801984753  MEMB      48              0.0000000000
      6397        54  POPC      C3            -33.2368590809        6.9880561741       14.9747214621  MEMB      48              0.0000000000
      6398        54  POPC      HX            -33.2054931863        7.8382558718       15.6912239792  MEMB      48              0.0000000000
      6399        54  POPC      HY            -34.3025747641        6.8534161530       14.6769947636  MEMB      48              0.0000000000
      6400        54  POPC      O31           -32.3765877502        7.3480904287       13.8713617948  MEMB      48              0.0000000000
      6401        54  POPC      C31           -32.7488431792        7.0070124624       12.6468995166  MEMB      48              0.0000000000
      6402        54  POPC      O32           -33.7573694486        6.4110393886       12.3250734243  MEMB      48              0.0000000000
      6403        54  POPC      C32           -31.7294419515        7.6623496082       11.7004576060  MEMB      48              0.0000000000
      6404        54  POPC      H2X           -30.7234369525        7.2835925965       11.9637111184  MEMB      48              0.0000000000
      6405        54  POPC      H2Y           -31.7473609883        8.7521680798       11.9213121341  MEMB      48              0.0000000000
      6406        54  POPC      C23           -28.4291283617        4.8314631488       13.5230518412  MEMB      48              0.0000000000
      6407        54  POPC      H3R           -28.6759199771        3.7502318799       13.4393202185  MEMB      48              0.0000000000
      6408        54  POPC      H3S           -27.3557610484        4.9065458783       13.8170802544  MEMB      48              0.0000000000
      6409        54  POPC      C24           -28.5593785864        5.5003914962       12.1440382611  MEMB      48              0.0000000000
      6410        54  POPC      H4R           -28.3994959228        6.5961100337       12.2552324635  MEMB      48              0.0000000000
      6411        54  POPC      H4S           -29.5882827313        5.3367813794       11.7541577740  MEMB      48              0.0000000000
      6412        54  POPC      C25           -27.5412289536        4.9477663647       11.1346993002  MEMB      48              0.0000000000
      6413        54  POPC      H5R           -27.7424394893        3.8645016431       10.9733248904  MEMB      48              0.0000000000
      6414        54  POPC      H5S           -26.5179964154        5.0332702238       11.5661094748  MEMB      48              0.0000000000
      6415        54  POPC      C26           -27.5494858191        5.6543896514        9.7698778779  MEMB      48              0.0000000000
      6416        54  POPC      H6R           -27.3771124681        6.7419870870        9.9093101574  MEMB      48              0.0000000000
      6417        54  POPC      H6S           -28.5503897310        5.5350220243        9.2985516477  MEMB      48              0.0000000000
      6418        54  POPC      C27           -26.4870549515        5.0713569211        8.8227248636  MEMB      48              0.0000000000
      6419        54  POPC      H7R           -26.7588804487        4.0037530918        8.6471305553  MEMB      48              0.0000000000
      6420        54  POPC      H7S           -25.4929870771        5.0755758187        9.3225701980  MEMB      48              0.0000000000
      6421        54  POPC      C28           -26.3841679529        5.8130513308        7.4744108731  MEMB      48              0.0000000000
      6422        54  POPC      H8R           -25.8696144265        6.7866092019        7.6320779184  MEMB      48              0.0000000000
      6423        54  POPC      H8S           -27.4117926723        6.0568249891        7.1230301902  MEMB      48              0.0000000000
      6424        54  POPC      C29           -25.6438304920        4.9695928764        6.4629669575  MEMB      48              0.0000000000
      6425        54  POPC      H91           -24.5597968517        4.8786322650        6.6421054641  MEMB      48              0.0000000000
      6426        54  POPC      C210          -26.1904134629        4.3002892194        5.4261276044  MEMB      48              0.0000000000
      6427        54  POPC      H101          -25.5286864982        3.7051852236        4.7766727433  MEMB      48              0.0000000000
      6428        54  POPC      C211          -27.6560074260        4.2524997096        5.0553507864  MEMB      48              0.0000000000
      6429        54  POPC      H11R          -27.7867535428        3.6908851974        4.1034072331  MEMB      48              0.0000000000
      6430        54  POPC      H11S          -28.0229218477        5.2860652258        4.8683522223  MEMB      48              0.0000000000
      6431        54  POPC      C212          -28.5542804929        3.5879455778        6.1196262609  MEMB      48              0.0000000000
      6432        54  POPC      H12R          -28.5123109488        4.1816981973        7.0593266912  MEMB      48              0.0000000000
      6433        54  POPC      H12S          -28.1721540036        2.5695800427        6.3548518619  MEMB      48              0.0000000000
      6434        54  POPC      C213          -30.0384213865        3.4725836264        5.7305199793  MEMB      48              0.0000000000
      6435        54  POPC      H13R          -30.5874822463        3.1754258390        6.6483110641  MEMB      48              0.0000000000
      6436        54  POPC      H13S          -30.1797960908        2.6656306765        4.9791118598  MEMB      48              0.0000000000
      6437        54  POPC      C214          -30.6574328548        4.7740848384        5.2024675375  MEMB      48              0.0000000000
      6438        54  POPC      H14R          -30.4098166977        4.8767108402        4.1242344461  MEMB      48              0.0000000000
      6439        54  POPC      H14S          -30.1892040675        5.6303227404        5.7407147235  MEMB      48              0.0000000000
      6440        54  POPC      C215          -32.1782785436        4.8761293702        5.4084546644  MEMB      48              0.0000000000
      6441        54  POPC      H15R          -32.5638724021        5.7763389193        4.8969692327  MEMB      48              0.0000000000
      6442        54  POPC      H15S          -32.3812721469        5.0183967124        6.4905420027  MEMB      48              0.0000000000
      6443        54  POPC      C216          -33.0041934944        3.6951446227        4.8874183005  MEMB      48              0.0000000000
      6444        54  POPC      H16R          -34.0737936215        3.9019897086        5.1244836239  MEMB      48              0.0000000000
      6445        54  POPC      H16S          -32.7102807351        2.7760611737        5.4357371935  MEMB      48              0.0000000000
      6446        54  POPC      C217          -32.8806843743        3.4667822455        3.3759362772  MEMB      48              0.0000000000
      6447        54  POPC      H17R          -32.1637477006        2.6355725494        3.1962434195  MEMB      48              0.0000000000
      6448        54  POPC      H17S          -32.4376035277        4.3721937123        2.9103183043  MEMB      48              0.0000000000
      6449        54  POPC      C218          -34.2174993978        3.1687528881        2.6878630858  MEMB      48              0.0000000000
      6450        54  POPC      H18R          -34.8905154566        4.0513508205        2.7399403549  MEMB      48              0.0000000000
      6451        54  POPC      H18S          -34.7277242862        2.3161993275        3.1822557760  MEMB      48              0.0000000000
      6452        54  POPC      H18T          -34.0532130415        2.9147018664        1.6182319822  MEMB      48              0.0000000000
      6453        54  POPC      C33           -32.0232276844        7.4465273756       10.1995936402  MEMB      48              0.0000000000
      6454        54  POPC      H3X           -33.0493755612        7.8248682667        9.9829709800  MEMB      48              0.0000000000
      6455        54  POPC      H3Y           -31.9937132589        6.3602459428        9.9552330213  MEMB      48              0.0000000000
      6456        54  POPC      C34           -31.0393736499        8.2112320825        9.3020539291  MEMB      48              0.0000000000
      6457        54  POPC      H4X           -30.0239284856        7.7663003861        9.3862829145  MEMB      48              0.0000000000
      6458        54  POPC      H4Y           -30.9786968774        9.2593127025        9.6705091819  MEMB      48              0.0000000000
      6459        54  POPC      C35           -31.4799176279        8.2394925318        7.8332076855  MEMB      48              0.0000000000
      6460        54  POPC      H5X           -32.5355712804        8.5910499725        7.7888157964  MEMB      48              0.0000000000
      6461        54  POPC      H5Y           -31.4556063197        7.2078832100        7.4182802294  MEMB      48              0.0000000000
      6462        54  POPC      C36           -30.6203966741        9.1772722511        6.9727690887  MEMB      48              0.0000000000
      6463        54  POPC      H6X           -29.6180345076        8.7176818452        6.8186012743  MEMB      48              0.0000000000
      6464        54  POPC      H6Y           -30.4707162702       10.1305578684        7.5299229745  MEMB      48              0.0000000000
      6465        54  POPC      C37           -31.2616917390        9.5216644028        5.6169275410  MEMB      48              0.0000000000
      6466        54  POPC      H7X           -30.5832040040       10.2006492785        5.0693164234  MEMB      48              0.0000000000
      6467        54  POPC      H7Y           -32.1993334176       10.0869960756        5.7972783276  MEMB      48              0.0000000000
      6468        54  POPC      C38           -31.5972293694        8.2838833299        4.7775054288  MEMB      48              0.0000000000
      6469        54  POPC      H8X           -32.4181760046        7.7551855287        5.3099212496  MEMB      48              0.0000000000
      6470        54  POPC      H8Y           -30.7070679636        7.6158100136        4.7451698514  MEMB      48              0.0000000000
      6471        54  POPC      C39           -32.0658901892        8.5429077197        3.3341887253  MEMB      48              0.0000000000
      6472        54  POPC      H9X           -31.2307303092        8.9442506346        2.7295524521  MEMB      48              0.0000000000
      6473        54  POPC      H9Y           -32.8796732476        9.2940151782        3.3276574678  MEMB      48              0.0000000000
      6474        54  POPC      C310          -32.5755155535        7.2509431718        2.6798977856  MEMB      48              0.0000000000
      6475        54  POPC      H10X          -33.5301690967        6.9683417467        3.1789707178  MEMB      48              0.0000000000
      6476        54  POPC      H10Y          -31.8410149155        6.4414556048        2.8798812949  MEMB      48              0.0000000000
      6477        54  POPC      C311          -32.8057618663        7.3052563541        1.1629425380  MEMB      48              0.0000000000
      6478        54  POPC      H11X          -31.8326672093        7.3914583389        0.6336146095  MEMB      48              0.0000000000
      6479        54  POPC      H11Y          -33.4012758031        8.2049102023        0.9124403162  MEMB      48              0.0000000000
      6480        54  POPC      C312          -33.5642096713        6.0506795641        0.6939041273  MEMB      48              0.0000000000
      6481        54  POPC      H12X          -34.4994115363        5.9944142906        1.2931532311  MEMB      48              0.0000000000
      6482        54  POPC      H12Y          -32.9716315320        5.1441944972        0.9406155338  MEMB      48              0.0000000000
      6483        54  POPC      C313          -33.9350502278        6.0237603710       -0.7964928324  MEMB      48              0.0000000000
      6484        54  POPC      H13X          -33.7994191666        7.0382875098       -1.2330551872  MEMB      48              0.0000000000
      6485        54  POPC      H13Y          -35.0139280727        5.7588834450       -0.8905716986  MEMB      48              0.0000000000
      6486        54  POPC      C314          -33.1262171874        5.0030476833       -1.6074251499  MEMB      48              0.0000000000
      6487        54  POPC      H14X          -33.4863255043        5.0227899161       -2.6610569270  MEMB      48              0.0000000000
      6488        54  POPC      H14Y          -33.3070147822        3.9812434389       -1.2040967525  MEMB      48              0.0000000000
      6489        54  POPC      C315          -31.6271259640        5.3036612871       -1.5807910230  MEMB      48              0.0000000000
      6490        54  POPC      H15X          -31.2514449861        5.2482991622       -0.5333680353  MEMB      48              0.0000000000
      6491        54  POPC      H15Y          -31.4847320830        6.3504339773       -1.9316732425  MEMB      48              0.0000000000
      6492        54  POPC      C316          -30.7949937899        4.3669734126       -2.4466795546  MEMB      48              0.0000000000
      6493        54  POPC      H16X          -30.9148355881        3.3136937482       -2.1131759981  MEMB      48              0.0000000000
      6494        54  POPC      H16Y          -29.7188160030        4.6388371520       -2.3705269851  MEMB      48              0.0000000000
      6495        54  POPC      H16Z          -31.1047516869        4.4442160543       -3.5107724640  MEMB      48              0.0000000000
      6496        55  POPS      N              14.8479574526       28.3638517786       21.1610780927  MEMB      49              0.0000000000
      6497        55  POPS      HN1            14.7219640595       29.3671217817       21.4400646069  MEMB      49              0.0000000000
      6498        55  POPS      HN2            14.1089694956       28.1162233604       20.4463159888  MEMB      49              0.0000000000
      6499        55  POPS      HN3            14.8272815919       27.7329563453       21.9808281895  MEMB      49              0.0000000000
      6500        55  POPS      C12            16.1746764843       28.3809626040       20.4674800809  MEMB      49              0.0000000000
      6501        55  POPS      H12A           16.8384750597       27.7076181894       20.9850727494  MEMB      49              0.0000000000
      6502        55  POPS      C13            16.8130044897       29.7801599365       20.5518713883  MEMB      49              0.0000000000
      6503        55  POPS      O13A           16.1242891058       30.7346948129       21.0170677685  MEMB      49              0.0000000000
      6504        55  POPS      O13B           18.0221836984       29.9243228614       20.2213120976  MEMB      49              0.0000000000
      6505        55  POPS      C11            16.0140286458       27.9268297570       18.9786903610  MEMB      49              0.0000000000
      6506        55  POPS      H11A           15.6743675473       26.8656546183       18.9478016422  MEMB      49              0.0000000000
      6507        55  POPS      H11B           17.0272552678       27.9526088342       18.5138095505  MEMB      49              0.0000000000
      6508        55  POPS      P              13.6239989212       28.5407884835       17.9798546624  MEMB      49              0.0000000000
      6509        55  POPS      O13            13.1396999053       27.7824977297       19.1572192344  MEMB      49              0.0000000000
      6510        55  POPS      O14            13.4131410196       27.9178526045       16.6599061102  MEMB      49              0.0000000000
      6511        55  POPS      O12            15.1603873871       28.7822347169       18.2215072915  MEMB      49              0.0000000000
      6512        55  POPS      O11            13.0147444305       29.9826501210       18.0854774447  MEMB      49              0.0000000000
      6513        55  POPS      C1             11.9220055039       30.3471496531       17.2409647966  MEMB      49              0.0000000000
      6514        55  POPS      HA             11.1243830368       30.7378617745       17.8979362782  MEMB      49              0.0000000000
      6515        55  POPS      HB             11.4551526550       29.4950753656       16.6901700515  MEMB      49              0.0000000000
      6516        55  POPS      C2             12.2810379622       31.4635156931       16.2164699769  MEMB      49              0.0000000000
      6517        55  POPS      HS             11.3146610717       31.8259068677       15.7888390661  MEMB      49              0.0000000000
      6518        55  POPS      O21            13.1555819409       30.9798820921       15.1659573732  MEMB      49              0.0000000000
      6519        55  POPS      C21            12.5292529117       30.2188116682       14.2622604175  MEMB      49              0.0000000000
      6520        55  POPS      O22            11.3279575416       30.0225199828       14.2194280069  MEMB      49              0.0000000000
      6521        55  POPS      C22            13.4987116165       29.7471263766       13.1800727949  MEMB      49              0.0000000000
      6522        55  POPS      H2R            14.0097693729       28.8477238233       13.5765630355  MEMB      49              0.0000000000
      6523        55  POPS      H2S            14.2397129931       30.5578976690       13.0253676553  MEMB      49              0.0000000000
      6524        55  POPS      C3             12.9368135301       32.7113710493       16.9053132971  MEMB      49              0.0000000000
      6525        55  POPS      HX             12.2000561867       33.0677017679       17.6567011287  MEMB      49              0.0000000000
      6526        55  POPS      HY             13.0159052673       33.4879532410       16.1235784498  MEMB      49              0.0000000000
      6527        55  POPS      O31            14.1971873480       32.5003543579       17.5821668327  MEMB      49              0.0000000000
      6528        55  POPS      C31            15.2814726850       32.7793204841       16.8570187294  MEMB      49              0.0000000000
      6529        55  POPS      O32            15.2813745578       33.3086240158       15.7532999565  MEMB      49              0.0000000000
      6530        55  POPS      C32            16.5356259050       32.2762089852       17.5561062956  MEMB      49              0.0000000000
      6531        55  POPS      H2X            16.2677584280       31.5368304513       18.3408758342  MEMB      49              0.0000000000
      6532        55  POPS      H2Y            17.0119383966       33.1462230927       18.0435834415  MEMB      49              0.0000000000
      6533        55  POPS      C23            12.7981015521       29.4236619962       11.8306234444  MEMB      49              0.0000000000
      6534        55  POPS      H3R            12.0300471909       30.1974876349       11.6270878671  MEMB      49              0.0000000000
      6535        55  POPS      H3S            12.2522628318       28.4581778971       11.9045124465  MEMB      49              0.0000000000
      6536        55  POPS      C24            13.7528780975       29.4032981013       10.6219347862  MEMB      49              0.0000000000
      6537        55  POPS      H4R            14.0964354958       28.3603576777       10.4502070114  MEMB      49              0.0000000000
      6538        55  POPS      H4S            14.6467411639       30.0268973854       10.8520283900  MEMB      49              0.0000000000
      6539        55  POPS      C25            13.1225689055       29.9635082183        9.3369619544  MEMB      49              0.0000000000
      6540        55  POPS      H5R            13.0138611858       31.0634306019        9.4637912978  MEMB      49              0.0000000000
      6541        55  POPS      H5S            12.1114338198       29.5179855206        9.2058989312  MEMB      49              0.0000000000
      6542        55  POPS      C26            13.9408200973       29.7234313490        8.0597801877  MEMB      49              0.0000000000
      6543        55  POPS      H6R            13.9800245429       28.6325056493        7.8524398830  MEMB      49              0.0000000000
      6544        55  POPS      H6S            14.9831735079       30.0718309806        8.2333070085  MEMB      49              0.0000000000
      6545        55  POPS      C27            13.3916014289       30.4767784030        6.8329554005  MEMB      49              0.0000000000
      6546        55  POPS      H7R            14.0523468793       30.2863442885        5.9569972345  MEMB      49              0.0000000000
      6547        55  POPS      H7S            13.4479620015       31.5679199468        7.0488624016  MEMB      49              0.0000000000
      6548        55  POPS      C28            11.9321647136       30.1455201285        6.4545686473  MEMB      49              0.0000000000
      6549        55  POPS      H8R            11.6522455326       30.8205576917        5.6166027302  MEMB      49              0.0000000000
      6550        55  POPS      H8S            11.2607453312       30.3865115276        7.3060901217  MEMB      49              0.0000000000
      6551        55  POPS      C29            11.7561610258       28.7158225519        6.0217722794  MEMB      49              0.0000000000
      6552        55  POPS      H91            12.6371450509       28.0699064043        6.1625493994  MEMB      49              0.0000000000
      6553        55  POPS      C210           10.6571930867       28.1841930117        5.4578612768  MEMB      49              0.0000000000
      6554        55  POPS      H101           10.7151811845       27.1461247827        5.1034527422  MEMB      49              0.0000000000
      6555        55  POPS      C211            9.3527751669       28.8620993090        5.1220008212  MEMB      49              0.0000000000
      6556        55  POPS      H11R            9.3052591515       29.9025697559        5.5154986028  MEMB      49              0.0000000000
      6557        55  POPS      H11S            8.4997089419       28.2976931046        5.5601729301  MEMB      49              0.0000000000
      6558        55  POPS      C212            9.2023363800       28.8985282343        3.5917400962  MEMB      49              0.0000000000
      6559        55  POPS      H12R            8.1768121336       29.2340596219        3.3197269328  MEMB      49              0.0000000000
      6560        55  POPS      H12S            9.3348639096       27.8769863954        3.1698792491  MEMB      49              0.0000000000
      6561        55  POPS      C213           10.2214307241       29.8576836652        2.9722631584  MEMB      49              0.0000000000
      6562        55  POPS      H13R           11.1754108633       29.8213352941        3.5381026842  MEMB      49              0.0000000000
      6563        55  POPS      H13S            9.8404677817       30.8913981616        3.0832867933  MEMB      49              0.0000000000
      6564        55  POPS      C214           10.5733334174       29.5821495894        1.5121122720  MEMB      49              0.0000000000
      6565        55  POPS      H14R            9.6641173800       29.7083829506        0.8849008833  MEMB      49              0.0000000000
      6566        55  POPS      H14S           10.9279517464       28.5351218356        1.3892242712  MEMB      49              0.0000000000
      6567        55  POPS      C215           11.6630194280       30.5569030401        1.0488418482  MEMB      49              0.0000000000
      6568        55  POPS      H15R           11.3925445155       31.5812754670        1.3810711150  MEMB      49              0.0000000000
      6569        55  POPS      H15S           11.6921722770       30.5773037508       -0.0581023438  MEMB      49              0.0000000000
      6570        55  POPS      C216           13.0655864792       30.2171970108        1.5668552294  MEMB      49              0.0000000000
      6571        55  POPS      H16R           13.2912366701       29.1610991007        1.2957509869  MEMB      49              0.0000000000
      6572        55  POPS      H16S           13.0981482556       30.2961092584        2.6753919981  MEMB      49              0.0000000000
      6573        55  POPS      C217           14.1439783997       31.1285431679        0.9661368593  MEMB      49              0.0000000000
      6574        55  POPS      H17R           14.0142082283       31.1358510501       -0.1400415723  MEMB      49              0.0000000000
      6575        55  POPS      H17S           15.1395479373       30.6849914513        1.1913972639  MEMB      49              0.0000000000
      6576        55  POPS      C218           14.1298904444       32.5738243059        1.4706633973  MEMB      49              0.0000000000
      6577        55  POPS      H18R           13.1843382809       33.0749967661        1.1811667820  MEMB      49              0.0000000000
      6578        55  POPS      H18S           14.9753556642       33.1437241768        1.0274691398  MEMB      49              0.0000000000
      6579        55  POPS      H18T           14.2224229250       32.6034040258        2.5770177823  MEMB      49              0.0000000000
      6580        55  POPS      C33            17.4868433821       31.6270783741       16.5245347905  MEMB      49              0.0000000000
      6581        55  POPS      H3X            18.4467056599       31.4081935071       17.0471912317  MEMB      49              0.0000000000
      6582        55  POPS      H3Y            17.7189424792       32.3267522302       15.6941528079  MEMB      49              0.0000000000
      6583        55  POPS      C34            16.9125326687       30.3114953965       15.9775410212  MEMB      49              0.0000000000
      6584        55  POPS      H4X            15.9218054469       30.1496231055       16.4623756998  MEMB      49              0.0000000000
      6585        55  POPS      H4Y            17.5542705815       29.4573909760       16.2805637201  MEMB      49              0.0000000000
      6586        55  POPS      C35            16.6506514899       30.2563971232       14.4581770443  MEMB      49              0.0000000000
      6587        55  POPS      H5X            16.1309658977       31.1783201139       14.1212769366  MEMB      49              0.0000000000
      6588        55  POPS      H5Y            15.9479357241       29.4033328175       14.3324986387  MEMB      49              0.0000000000
      6589        55  POPS      C36            17.8947082496       29.9740410990       13.5999930783  MEMB      49              0.0000000000
      6590        55  POPS      H6X            18.5013081632       29.2161832878       14.1366999871  MEMB      49              0.0000000000
      6591        55  POPS      H6Y            18.5116607863       30.8959275400       13.5314975653  MEMB      49              0.0000000000
      6592        55  POPS      C37            17.6111990878       29.4258289067       12.1838114682  MEMB      49              0.0000000000
      6593        55  POPS      H7X            18.5915643029       29.1736101333       11.7229054684  MEMB      49              0.0000000000
      6594        55  POPS      H7Y            17.1528394045       30.2316691190       11.5709070232  MEMB      49              0.0000000000
      6595        55  POPS      C38            16.7081717991       28.1767846902       12.1438940358  MEMB      49              0.0000000000
      6596        55  POPS      H8X            15.6610697763       28.5161663422       12.2607973237  MEMB      49              0.0000000000
      6597        55  POPS      H8Y            16.9170623900       27.5307043098       13.0246162341  MEMB      49              0.0000000000
      6598        55  POPS      C39            16.8158710761       27.3213551908       10.8636154133  MEMB      49              0.0000000000
      6599        55  POPS      H9X            15.9159678050       26.6704546386       10.7961267371  MEMB      49              0.0000000000
      6600        55  POPS      H9Y            17.7025518530       26.6561499374       10.9373820648  MEMB      49              0.0000000000
      6601        55  POPS      C310           16.9676497012       28.1351107003        9.5720330406  MEMB      49              0.0000000000
      6602        55  POPS      H10X           18.0105712574       28.5166972863        9.5242676590  MEMB      49              0.0000000000
      6603        55  POPS      H10Y           16.2998841670       29.0200759354        9.6093785607  MEMB      49              0.0000000000
      6604        55  POPS      C311           16.6704354006       27.3467560467        8.2847932383  MEMB      49              0.0000000000
      6605        55  POPS      H11X           15.5777793968       27.1488153413        8.2280304448  MEMB      49              0.0000000000
      6606        55  POPS      H11Y           17.1981052659       26.3676905063        8.3060689551  MEMB      49              0.0000000000
      6607        55  POPS      C312           17.1290630152       28.1365132638        7.0511697772  MEMB      49              0.0000000000
      6608        55  POPS      H12X           18.2187559357       27.9720067400        6.9088956626  MEMB      49              0.0000000000
      6609        55  POPS      H12Y           16.9794918755       29.2216021933        7.2578812876  MEMB      49              0.0000000000
      6610        55  POPS      C313           16.3945765979       27.8191433015        5.7417822821  MEMB      49              0.0000000000
      6611        55  POPS      H13X           15.3084116713       28.0137214933        5.8861382128  MEMB      49              0.0000000000
      6612        55  POPS      H13Y           16.5246519625       26.7485654790        5.4712714593  MEMB      49              0.0000000000
      6613        55  POPS      C314           16.9161540027       28.7180058861        4.6073982479  MEMB      49              0.0000000000
      6614        55  POPS      H14X           17.9154382410       28.3500292104        4.2840111130  MEMB      49              0.0000000000
      6615        55  POPS      H14Y           17.0578873687       29.7464739241        5.0128144659  MEMB      49              0.0000000000
      6616        55  POPS      C315           15.9844121291       28.8332846804        3.3927889004  MEMB      49              0.0000000000
      6617        55  POPS      H15X           16.4621773454       29.5316681151        2.6662626135  MEMB      49              0.0000000000
      6618        55  POPS      H15Y           15.0246159245       29.2960803234        3.7180897914  MEMB      49              0.0000000000
      6619        55  POPS      C316           15.6919647147       27.5136262687        2.6808953344  MEMB      49              0.0000000000
      6620        55  POPS      H16X           15.1776038011       26.7995946780        3.3596213413  MEMB      49              0.0000000000
      6621        55  POPS      H16Y           16.6408491464       27.0610018175        2.3296812037  MEMB      49              0.0000000000
      6622        55  POPS      H16Z           15.0429749528       27.6842398279        1.7953859663  MEMB      49              0.0000000000
      6623        56  POPS      N               7.6707398277      -34.1142339742       21.3557098588  MEMB      50              0.0000000000
      6624        56  POPS      HN1             7.8045917183      -33.3129196056       22.0036762728  MEMB      50              0.0000000000
      6625        56  POPS      HN2             7.5869038157      -35.0087956044       21.8799265009  MEMB      50              0.0000000000
      6626        56  POPS      HN3             8.4582787350      -34.1642793120       20.6549273735  MEMB      50              0.0000000000
      6627        56  POPS      C12             6.3753230462      -33.9130983404       20.6524126716  MEMB      50              0.0000000000
      6628        56  POPS      H12A            6.0769983487      -32.8873903800       20.7835975955  MEMB      50              0.0000000000
      6629        56  POPS      C13             5.2902790767      -34.7859188663       21.2930406365  MEMB      50              0.0000000000
      6630        56  POPS      O13A            5.5852459771      -35.6000493581       22.2127190785  MEMB      50              0.0000000000
      6631        56  POPS      O13B            4.1048129983      -34.6093782002       20.9228640861  MEMB      50              0.0000000000
      6632        56  POPS      C11             6.5205592813      -34.1488573616       19.1273520681  MEMB      50              0.0000000000
      6633        56  POPS      H11A            5.5337882548      -33.9641414973       18.6481245486  MEMB      50              0.0000000000
      6634        56  POPS      H11B            6.7518423653      -35.2241844006       18.9321066194  MEMB      50              0.0000000000
      6635        56  POPS      P               8.9216864495      -33.7881592949       18.2207543292  MEMB      50              0.0000000000
      6636        56  POPS      O13             8.8097183302      -34.8564146175       17.2080739068  MEMB      50              0.0000000000
      6637        56  POPS      O14             9.5536412633      -34.1515958300       19.5239107994  MEMB      50              0.0000000000
      6638        56  POPS      O12             7.4787872585      -33.2298517105       18.5684362682  MEMB      50              0.0000000000
      6639        56  POPS      O11             9.6636504993      -32.5793734814       17.5556609442  MEMB      50              0.0000000000
      6640        56  POPS      C1             10.0778709025      -31.3688379770       18.1647317624  MEMB      50              0.0000000000
      6641        56  POPS      HA             11.0743195190      -31.5042581605       18.6356346539  MEMB      50              0.0000000000
      6642        56  POPS      HB              9.3603282471      -31.0663147365       18.9608923648  MEMB      50              0.0000000000
      6643        56  POPS      C2             10.1407563479      -30.2100763595       17.1134029982  MEMB      50              0.0000000000
      6644        56  POPS      HS              9.9155989160      -29.2519549681       17.6355474620  MEMB      50              0.0000000000
      6645        56  POPS      O21             9.1843853060      -30.4591069235       16.0621323683  MEMB      50              0.0000000000
      6646        56  POPS      C21             7.9379579033      -30.3950673396       16.4747201320  MEMB      50              0.0000000000
      6647        56  POPS      O22             7.5690816766      -29.8100839034       17.4862965056  MEMB      50              0.0000000000
      6648        56  POPS      C22             6.9924826529      -31.1122656900       15.5101099003  MEMB      50              0.0000000000
      6649        56  POPS      H2R             6.3424924646      -30.3332431172       15.0746916794  MEMB      50              0.0000000000
      6650        56  POPS      H2S             6.3796472430      -31.8091934385       16.1183892474  MEMB      50              0.0000000000
      6651        56  POPS      C3             11.5690843830      -30.0104632135       16.4935011393  MEMB      50              0.0000000000
      6652        56  POPS      HX             12.3031063531      -30.0621943605       17.3252538466  MEMB      50              0.0000000000
      6653        56  POPS      HY             11.6739070831      -28.9936965323       16.0683495010  MEMB      50              0.0000000000
      6654        56  POPS      O31            11.9343354205      -31.0048829977       15.5282723541  MEMB      50              0.0000000000
      6655        56  POPS      C31            11.3485185722      -30.9292582334       14.3443499395  MEMB      50              0.0000000000
      6656        56  POPS      O32            10.6773114701      -30.0025867767       13.9369561580  MEMB      50              0.0000000000
      6657        56  POPS      C32            11.5218292376      -32.2617846938       13.6178561536  MEMB      50              0.0000000000
      6658        56  POPS      H2X            10.9714737115      -33.0201732819       14.2158791965  MEMB      50              0.0000000000
      6659        56  POPS      H2Y            12.5975904899      -32.5295845622       13.6151988735  MEMB      50              0.0000000000
      6660        56  POPS      C23             7.6704016108      -31.8891251261       14.3594119784  MEMB      50              0.0000000000
      6661        56  POPS      H3R             8.3768844119      -32.6477933996       14.7704356898  MEMB      50              0.0000000000
      6662        56  POPS      H3S             8.2607500325      -31.1675493962       13.7488988579  MEMB      50              0.0000000000
      6663        56  POPS      C24             6.6554888179      -32.6000134783       13.4476873577  MEMB      50              0.0000000000
      6664        56  POPS      H4R             5.7305306439      -31.9918067324       13.3776559574  MEMB      50              0.0000000000
      6665        56  POPS      H4S             6.3747718955      -33.5787013914       13.8962352067  MEMB      50              0.0000000000
      6666        56  POPS      C25             7.2184163449      -32.8005516288       12.0357755541  MEMB      50              0.0000000000
      6667        56  POPS      H5R             8.1021600838      -33.4724047156       12.1151327735  MEMB      50              0.0000000000
      6668        56  POPS      H5S             7.5706014206      -31.8144597512       11.6539172890  MEMB      50              0.0000000000
      6669        56  POPS      C26             6.2282959676      -33.3806700211       11.0143800605  MEMB      50              0.0000000000
      6670        56  POPS      H6R             6.6811587089      -33.3183650661       10.0001836038  MEMB      50              0.0000000000
      6671        56  POPS      H6S             5.3103694083      -32.7638551026       10.9952395763  MEMB      50              0.0000000000
      6672        56  POPS      C27             5.8312615503      -34.8348043450       11.2942915596  MEMB      50              0.0000000000
      6673        56  POPS      H7R             5.0674631221      -34.8181846451       12.1063086344  MEMB      50              0.0000000000
      6674        56  POPS      H7S             6.7089513429      -35.3986408243       11.6841009468  MEMB      50              0.0000000000
      6675        56  POPS      C28             5.2302664436      -35.5485935398       10.0634129324  MEMB      50              0.0000000000
      6676        56  POPS      H8R             4.5494969115      -34.8471071699        9.5309143114  MEMB      50              0.0000000000
      6677        56  POPS      H8S             4.6011046359      -36.3729216754       10.4700875788  MEMB      50              0.0000000000
      6678        56  POPS      C29             6.2718662923      -36.1545015202        9.1504244119  MEMB      50              0.0000000000
      6679        56  POPS      H91             7.0372845020      -36.7292651968        9.6936425946  MEMB      50              0.0000000000
      6680        56  POPS      C210            6.3764744253      -36.0949088706        7.8061187541  MEMB      50              0.0000000000
      6681        56  POPS      H101            7.2221560831      -36.6224283352        7.3381272054  MEMB      50              0.0000000000
      6682        56  POPS      C211            5.4862569479      -35.4037896376        6.7995121252  MEMB      50              0.0000000000
      6683        56  POPS      H11R            4.6924790533      -34.7890949855        7.2806573626  MEMB      50              0.0000000000
      6684        56  POPS      H11S            4.9671014641      -36.1678681030        6.1777860552  MEMB      50              0.0000000000
      6685        56  POPS      C212            6.3076264623      -34.4972248751        5.8545200677  MEMB      50              0.0000000000
      6686        56  POPS      H12R            7.2728923538      -34.9667364030        5.5622467104  MEMB      50              0.0000000000
      6687        56  POPS      H12S            6.5450398291      -33.5633022919        6.4143597736  MEMB      50              0.0000000000
      6688        56  POPS      C213            5.5456126918      -34.0938867890        4.5815818908  MEMB      50              0.0000000000
      6689        56  POPS      H13R            5.8245238564      -33.0473104288        4.3164730352  MEMB      50              0.0000000000
      6690        56  POPS      H13S            4.4602362928      -34.1081675070        4.8162895097  MEMB      50              0.0000000000
      6691        56  POPS      C214            5.8252293341      -34.9513993376        3.3374493852  MEMB      50              0.0000000000
      6692        56  POPS      H14R            4.9199585115      -34.9309728772        2.6879870299  MEMB      50              0.0000000000
      6693        56  POPS      H14S            6.0157378279      -36.0067448047        3.6299199408  MEMB      50              0.0000000000
      6694        56  POPS      C215            7.0043165344      -34.3903930297        2.5272829036  MEMB      50              0.0000000000
      6695        56  POPS      H15R            7.9217650428      -34.5121807605        3.1432032540  MEMB      50              0.0000000000
      6696        56  POPS      H15S            6.8663708987      -33.2968855494        2.3687816318  MEMB      50              0.0000000000
      6697        56  POPS      C216            7.2095941852      -35.0470115705        1.1530602964  MEMB      50              0.0000000000
      6698        56  POPS      H16R            7.0609351655      -36.1452661196        1.2183663290  MEMB      50              0.0000000000
      6699        56  POPS      H16S            8.2675907077      -34.8714965129        0.8523713379  MEMB      50              0.0000000000
      6700        56  POPS      C217            6.3255830047      -34.4412278669        0.0551208835  MEMB      50              0.0000000000
      6701        56  POPS      H17R            6.4051614300      -33.3318613191        0.1227792799  MEMB      50              0.0000000000
      6702        56  POPS      H17S            5.2640513626      -34.7157813784        0.2439986637  MEMB      50              0.0000000000
      6703        56  POPS      C218            6.7288453583      -34.8587471046       -1.3608882604  MEMB      50              0.0000000000
      6704        56  POPS      H18R            7.7424896608      -34.4731003691       -1.6004750435  MEMB      50              0.0000000000
      6705        56  POPS      H18S            6.0157991472      -34.4572649613       -2.1124155724  MEMB      50              0.0000000000
      6706        56  POPS      H18T            6.7553544556      -35.9632283952       -1.4544884970  MEMB      50              0.0000000000
      6707        56  POPS      C33            10.9381953401      -32.2572722890       12.1795105657  MEMB      50              0.0000000000
      6708        56  POPS      H3X            11.4797258401      -31.5260548901       11.5456156723  MEMB      50              0.0000000000
      6709        56  POPS      H3Y             9.8725119678      -31.9435827611       12.2071769891  MEMB      50              0.0000000000
      6710        56  POPS      C34            11.0458473834      -33.6476288103       11.5422262379  MEMB      50              0.0000000000
      6711        56  POPS      H4X            10.3600719074      -34.3442545093       12.0775500684  MEMB      50              0.0000000000
      6712        56  POPS      H4Y            12.0905164882      -33.9942692798       11.7169808318  MEMB      50              0.0000000000
      6713        56  POPS      C35            10.7947540175      -33.7173553324       10.0229427986  MEMB      50              0.0000000000
      6714        56  POPS      H5X            10.9912089921      -34.7605916186        9.6920432583  MEMB      50              0.0000000000
      6715        56  POPS      H5Y            11.5188674270      -33.0640984725        9.5004200333  MEMB      50              0.0000000000
      6716        56  POPS      C36             9.3681233261      -33.3984829551        9.5656998541  MEMB      50              0.0000000000
      6717        56  POPS      H6X             9.0621399377      -32.3936297738        9.9294056215  MEMB      50              0.0000000000
      6718        56  POPS      H6Y             8.7080699524      -34.1647118949       10.0332249478  MEMB      50              0.0000000000
      6719        56  POPS      C37             9.1797838646      -33.4577942038        8.0377031123  MEMB      50              0.0000000000
      6720        56  POPS      H7X             8.0898282074      -33.4394031832        7.8271085883  MEMB      50              0.0000000000
      6721        56  POPS      H7Y             9.5864849884      -34.4135554258        7.6415888514  MEMB      50              0.0000000000
      6722        56  POPS      C38             9.8405674146      -32.2694998110        7.3291374527  MEMB      50              0.0000000000
      6723        56  POPS      H8X            10.9290839695      -32.3057983410        7.5431664477  MEMB      50              0.0000000000
      6724        56  POPS      H8Y             9.4375800763      -31.3391109071        7.7918311878  MEMB      50              0.0000000000
      6725        56  POPS      C39             9.6274522709      -32.1772200796        5.8051404328  MEMB      50              0.0000000000
      6726        56  POPS      H9X             9.6882197617      -31.0958827888        5.5363688897  MEMB      50              0.0000000000
      6727        56  POPS      H9Y             8.6140510059      -32.5308402064        5.5215163103  MEMB      50              0.0000000000
      6728        56  POPS      C310           10.7052137618      -32.9018434154        4.9802812359  MEMB      50              0.0000000000
      6729        56  POPS      H10X           10.3898042956      -33.9488822928        4.7867608544  MEMB      50              0.0000000000
      6730        56  POPS      H10Y           11.6423329043      -32.9457447700        5.5810569375  MEMB      50              0.0000000000
      6731        56  POPS      C311           11.0597918273      -32.1970722408        3.6564970308  MEMB      50              0.0000000000
      6732        56  POPS      H11X           12.0303115333      -32.6095387896        3.2956833699  MEMB      50              0.0000000000
      6733        56  POPS      H11Y           11.2094536410      -31.1092839601        3.8343230367  MEMB      50              0.0000000000
      6734        56  POPS      C312           10.0235087928      -32.4038598243        2.5449540743  MEMB      50              0.0000000000
      6735        56  POPS      H12X            9.0294356453      -32.0258153389        2.8677650945  MEMB      50              0.0000000000
      6736        56  POPS      H12Y            9.9170589811      -33.4913616778        2.3559960418  MEMB      50              0.0000000000
      6737        56  POPS      C313           10.4236423456      -31.7330798475        1.2244385877  MEMB      50              0.0000000000
      6738        56  POPS      H13X           11.5133821382      -31.8502947269        1.0498259581  MEMB      50              0.0000000000
      6739        56  POPS      H13Y           10.2358375937      -30.6422761878        1.3269839882  MEMB      50              0.0000000000
      6740        56  POPS      C314            9.6437131692      -32.2820900109        0.0166236089  MEMB      50              0.0000000000
      6741        56  POPS      H14X            9.3961178548      -31.4394905948       -0.6518066790  MEMB      50              0.0000000000
      6742        56  POPS      H14Y            8.6707501001      -32.6974882780        0.3512872709  MEMB      50              0.0000000000
      6743        56  POPS      C315           10.4054048201      -33.3147456678       -0.8308318440  MEMB      50              0.0000000000
      6744        56  POPS      H15X           10.0251520626      -34.3256572949       -0.5643830974  MEMB      50              0.0000000000
      6745        56  POPS      H15Y           11.4872975927      -33.2881170352       -0.5697720937  MEMB      50              0.0000000000
      6746        56  POPS      C316           10.2738090943      -33.1135295045       -2.3445163072  MEMB      50              0.0000000000
      6747        56  POPS      H16X            9.2071031933      -33.0335928718       -2.6427605891  MEMB      50              0.0000000000
      6748        56  POPS      H16Y           10.7333767798      -33.9681984275       -2.8868773166  MEMB      50              0.0000000000
      6749        56  POPS      H16Z           10.8011744091      -32.1882773993       -2.6588357438  MEMB      50              0.0000000000
      6750        57  POPS      N              32.0047961362       -8.8825834707       20.8628175744  MEMB      51              0.0000000000
      6751        57  POPS      HN1            31.1280277874       -8.9114846828       21.4311071085  MEMB      51              0.0000000000
      6752        57  POPS      HN2            32.5532126171       -9.7630556353       20.9975940148  MEMB      51              0.0000000000
      6753        57  POPS      HN3            32.5547705231       -8.0422816598       21.1019757707  MEMB      51              0.0000000000
      6754        57  POPS      C12            31.5969728087       -8.8644626299       19.4280139726  MEMB      51              0.0000000000
      6755        57  POPS      H12A           32.3930593416       -8.4300985415       18.8410531839  MEMB      51              0.0000000000
      6756        57  POPS      C13            30.3306226565       -8.0437058520       19.1724675767  MEMB      51              0.0000000000
      6757        57  POPS      O13A           29.8236355867       -7.4363558834       20.1493543507  MEMB      51              0.0000000000
      6758        57  POPS      O13B           29.8569227080       -8.0034123319       18.0148940562  MEMB      51              0.0000000000
      6759        57  POPS      C11            31.3995954977      -10.3364184540       19.0379458556  MEMB      51              0.0000000000
      6760        57  POPS      H11A           31.1466002831      -10.4150335014       17.9564912586  MEMB      51              0.0000000000
      6761        57  POPS      H11B           30.5348555081      -10.7558056986       19.6109659594  MEMB      51              0.0000000000
      6762        57  POPS      P              32.6441421849      -12.5849624147       19.1312393119  MEMB      51              0.0000000000
      6763        57  POPS      O13            31.4857153158      -13.1868313080       19.8169736592  MEMB      51              0.0000000000
      6764        57  POPS      O14            33.9488963069      -13.0823961614       19.5669295509  MEMB      51              0.0000000000
      6765        57  POPS      O12            32.6200864703      -11.0213168788       19.3408687386  MEMB      51              0.0000000000
      6766        57  POPS      O11            32.4214437069      -12.7520849795       17.5884141048  MEMB      51              0.0000000000
      6767        57  POPS      C1             33.3437782218      -12.6467101704       16.5208733882  MEMB      51              0.0000000000
      6768        57  POPS      HA             32.9391266921      -13.2411621987       15.6690622337  MEMB      51              0.0000000000
      6769        57  POPS      HB             34.3172621145      -13.1083142408       16.7852234213  MEMB      51              0.0000000000
      6770        57  POPS      C2             33.5232190288      -11.1860553917       16.0078256613  MEMB      51              0.0000000000
      6771        57  POPS      HS             33.9841714789      -10.6011997517       16.8305559695  MEMB      51              0.0000000000
      6772        57  POPS      O21            32.2511367805      -10.6384736678       15.6433710116  MEMB      51              0.0000000000
      6773        57  POPS      C21            32.0928494788       -9.3325453314       15.7902172585  MEMB      51              0.0000000000
      6774        57  POPS      O22            32.8483921882       -8.5997247184       16.4128666835  MEMB      51              0.0000000000
      6775        57  POPS      C22            30.8779575733       -8.8882161906       14.9686428083  MEMB      51              0.0000000000
      6776        57  POPS      H2R            30.0393842712       -8.7055351952       15.6719698095  MEMB      51              0.0000000000
      6777        57  POPS      H2S            30.5879846848       -9.7095441512       14.2825033041  MEMB      51              0.0000000000
      6778        57  POPS      C3             34.4356029958      -11.1370347981       14.7533426150  MEMB      51              0.0000000000
      6779        57  POPS      HX             35.4292230888      -11.5663900277       14.9944331287  MEMB      51              0.0000000000
      6780        57  POPS      HY             34.5734687066      -10.0644674325       14.4748118241  MEMB      51              0.0000000000
      6781        57  POPS      O31            33.8170419847      -11.8880470375       13.6885357892  MEMB      51              0.0000000000
      6782        57  POPS      C31            34.3323630543      -11.6492676051       12.4872775941  MEMB      51              0.0000000000
      6783        57  POPS      O32            35.3323210533      -10.9900667731       12.2743043279  MEMB      51              0.0000000000
      6784        57  POPS      C32            33.4533633916      -12.3057116333       11.4187125078  MEMB      51              0.0000000000
      6785        57  POPS      H2X            33.0161742241      -11.4755502271       10.8273177057  MEMB      51              0.0000000000
      6786        57  POPS      H2Y            32.6220314172      -12.8565409271       11.9080125428  MEMB      51              0.0000000000
      6787        57  POPS      C23            31.1701946105       -7.6062831849       14.1589065141  MEMB      51              0.0000000000
      6788        57  POPS      H3R            31.9664089755       -7.7928386996       13.4068801498  MEMB      51              0.0000000000
      6789        57  POPS      H3S            31.5431303129       -6.8235357192       14.8597270612  MEMB      51              0.0000000000
      6790        57  POPS      C24            29.9330698049       -7.0240263695       13.4649007351  MEMB      51              0.0000000000
      6791        57  POPS      H4R            30.1951479187       -6.0278202660       13.0556795850  MEMB      51              0.0000000000
      6792        57  POPS      H4S            29.1562940632       -6.8605923401       14.2465640880  MEMB      51              0.0000000000
      6793        57  POPS      C25            29.3334326111       -7.8778186186       12.3361006268  MEMB      51              0.0000000000
      6794        57  POPS      H5R            28.4226275961       -7.3523217586       11.9775609619  MEMB      51              0.0000000000
      6795        57  POPS      H5S            29.0241600560       -8.8631176443       12.7487678492  MEMB      51              0.0000000000
      6796        57  POPS      C26            30.2127847874       -8.0920517598       11.0945421587  MEMB      51              0.0000000000
      6797        57  POPS      H6R            29.6066093046       -8.6806201724       10.3656003833  MEMB      51              0.0000000000
      6798        57  POPS      H6S            31.1082225191       -8.6993091926       11.3482098247  MEMB      51              0.0000000000
      6799        57  POPS      C27            30.6443853521       -6.7897441955       10.3985132249  MEMB      51              0.0000000000
      6800        57  POPS      H7R            31.5381676107       -6.3694787929       10.9100076092  MEMB      51              0.0000000000
      6801        57  POPS      H7S            29.8242756611       -6.0411387494       10.4948450902  MEMB      51              0.0000000000
      6802        57  POPS      C28            30.9237038370       -6.9714475542        8.8950974691  MEMB      51              0.0000000000
      6803        57  POPS      H8R            31.2752327779       -6.0007432278        8.4782413334  MEMB      51              0.0000000000
      6804        57  POPS      H8S            29.9540745240       -7.1857723580        8.3988479543  MEMB      51              0.0000000000
      6805        57  POPS      C29            31.9444654637       -8.0434580140        8.6104544085  MEMB      51              0.0000000000
      6806        57  POPS      H91            32.9442183689       -7.8531370078        9.0291059534  MEMB      51              0.0000000000
      6807        57  POPS      C210           31.7458657880       -9.2015350356        7.9547920736  MEMB      51              0.0000000000
      6808        57  POPS      H101           32.6167609581       -9.8465184875        7.7742755669  MEMB      51              0.0000000000
      6809        57  POPS      C211           30.4654001596       -9.7140634821        7.3484669194  MEMB      51              0.0000000000
      6810        57  POPS      H11R           29.5800928783       -9.1795114651        7.7523552944  MEMB      51              0.0000000000
      6811        57  POPS      H11S           30.3293196287      -10.7823765413        7.6291435256  MEMB      51              0.0000000000
      6812        57  POPS      C212           30.4420148625       -9.6119948332        5.8114156066  MEMB      51              0.0000000000
      6813        57  POPS      H12R           29.5091895827      -10.1097941859        5.4568451075  MEMB      51              0.0000000000
      6814        57  POPS      H12S           31.2978550151      -10.1645076289        5.3648887464  MEMB      51              0.0000000000
      6815        57  POPS      C213           30.4384931002       -8.1633748785        5.3023663811  MEMB      51              0.0000000000
      6816        57  POPS      H13R           31.4187441075       -7.6752175282        5.4980414157  MEMB      51              0.0000000000
      6817        57  POPS      H13S           29.6781738865       -7.5927258678        5.8792385658  MEMB      51              0.0000000000
      6818        57  POPS      C214           30.0768640890       -8.0531812528        3.8164193099  MEMB      51              0.0000000000
      6819        57  POPS      H14R           29.5417237677       -7.0903672785        3.6553109248  MEMB      51              0.0000000000
      6820        57  POPS      H14S           29.3767799070       -8.8679246358        3.5312386798  MEMB      51              0.0000000000
      6821        57  POPS      C215           31.3045789807       -8.0563201101        2.9025943248  MEMB      51              0.0000000000
      6822        57  POPS      H15R           31.8858914726       -8.9929909922        3.0455646448  MEMB      51              0.0000000000
      6823        57  POPS      H15S           31.9543158025       -7.2015578292        3.2022273314  MEMB      51              0.0000000000
      6824        57  POPS      C216           30.9276452569       -7.8899503041        1.4266890058  MEMB      51              0.0000000000
      6825        57  POPS      H16R           30.1912334615       -7.0574422531        1.3415442171  MEMB      51              0.0000000000
      6826        57  POPS      H16S           30.4360844519       -8.8174201557        1.0593155014  MEMB      51              0.0000000000
      6827        57  POPS      C217           32.1282111377       -7.5523239634        0.5365632739  MEMB      51              0.0000000000
      6828        57  POPS      H17R           32.6430865777       -6.6582853671        0.9517469192  MEMB      51              0.0000000000
      6829        57  POPS      H17S           31.7488452946       -7.2704463080       -0.4683916117  MEMB      51              0.0000000000
      6830        57  POPS      C218           33.1361991958       -8.6882965387        0.3861264310  MEMB      51              0.0000000000
      6831        57  POPS      H18R           32.6393677413       -9.5995872396       -0.0011504734  MEMB      51              0.0000000000
      6832        57  POPS      H18S           33.6036418272       -8.9415285323        1.3602414074  MEMB      51              0.0000000000
      6833        57  POPS      H18T           33.9402431034       -8.3995161523       -0.3243899223  MEMB      51              0.0000000000
      6834        57  POPS      C33            34.2386660448      -13.2710976628       10.4960308260  MEMB      51              0.0000000000
      6835        57  POPS      H3X            34.5086073002      -14.1858806395       11.0735969346  MEMB      51              0.0000000000
      6836        57  POPS      H3Y            35.1903994927      -12.8007803864       10.1559631826  MEMB      51              0.0000000000
      6837        57  POPS      C34            33.4439609571      -13.6958896995        9.2494809441  MEMB      51              0.0000000000
      6838        57  POPS      H4X            32.4268243618      -14.0322958757        9.5516597889  MEMB      51              0.0000000000
      6839        57  POPS      H4Y            33.9582479959      -14.5679543416        8.7832834544  MEMB      51              0.0000000000
      6840        57  POPS      C35            33.3488820962      -12.5642613267        8.2168418357  MEMB      51              0.0000000000
      6841        57  POPS      H5X            34.3759751012      -12.2999557214        7.8778672737  MEMB      51              0.0000000000
      6842        57  POPS      H5Y            32.9254889464      -11.6682252991        8.7180763745  MEMB      51              0.0000000000
      6843        57  POPS      C36            32.4707603007      -12.8738545879        6.9956317230  MEMB      51              0.0000000000
      6844        57  POPS      H6X            32.5346861657      -12.0073818898        6.3011418033  MEMB      51              0.0000000000
      6845        57  POPS      H6Y            31.4108533205      -12.9539715817        7.3200397028  MEMB      51              0.0000000000
      6846        57  POPS      C37            32.8485903763      -14.1561308084        6.2421340801  MEMB      51              0.0000000000
      6847        57  POPS      H7X            32.6231433563      -15.0349766285        6.8876498590  MEMB      51              0.0000000000
      6848        57  POPS      H7Y            33.9347131190      -14.1622740837        6.0279465972  MEMB      51              0.0000000000
      6849        57  POPS      C38            32.1103950492      -14.3155447096        4.9058892970  MEMB      51              0.0000000000
      6850        57  POPS      H8X            31.0274283194      -14.1566757219        5.0700242132  MEMB      51              0.0000000000
      6851        57  POPS      H8Y            32.2543106290      -15.3670819409        4.5689565682  MEMB      51              0.0000000000
      6852        57  POPS      C39            32.6300227983      -13.3657436284        3.8130153802  MEMB      51              0.0000000000
      6853        57  POPS      H9X            33.7168981739      -13.5510408484        3.7024416211  MEMB      51              0.0000000000
      6854        57  POPS      H9Y            32.5217859157      -12.3102513944        4.1467931433  MEMB      51              0.0000000000
      6855        57  POPS      C310           31.9345868254      -13.4974245465        2.4422307096  MEMB      51              0.0000000000
      6856        57  POPS      H10X           32.5618519476      -13.0069448259        1.6661564601  MEMB      51              0.0000000000
      6857        57  POPS      H10Y           30.9805121542      -12.9260142430        2.4904861445  MEMB      51              0.0000000000
      6858        57  POPS      C311           31.6091103864      -14.9310215733        1.9894921110  MEMB      51              0.0000000000
      6859        57  POPS      H11X           31.0586402400      -14.9027428255        1.0228838952  MEMB      51              0.0000000000
      6860        57  POPS      H11Y           30.9159136784      -15.3833972505        2.7348743975  MEMB      51              0.0000000000
      6861        57  POPS      C312           32.8291883073      -15.8533104493        1.8335140434  MEMB      51              0.0000000000
      6862        57  POPS      H12X           32.4589643299      -16.8911929582        1.9678707859  MEMB      51              0.0000000000
      6863        57  POPS      H12Y           33.5654891462      -15.6758998328        2.6445041375  MEMB      51              0.0000000000
      6864        57  POPS      C313           33.5112156754      -15.7670570586        0.4564638146  MEMB      51              0.0000000000
      6865        57  POPS      H13X           34.5896436977      -15.5433547649        0.5815603338  MEMB      51              0.0000000000
      6866        57  POPS      H13Y           33.0445400940      -14.9374719516       -0.1172291089  MEMB      51              0.0000000000
      6867        57  POPS      C314           33.4068706828      -17.0805778644       -0.3225705889  MEMB      51              0.0000000000
      6868        57  POPS      H14X           32.3273599760      -17.3143069306       -0.4224407894  MEMB      51              0.0000000000
      6869        57  POPS      H14Y           33.9154802545      -17.8723176052        0.2707691933  MEMB      51              0.0000000000
      6870        57  POPS      C315           34.0191673586      -17.1223753529       -1.7187882602  MEMB      51              0.0000000000
      6871        57  POPS      H15X           33.5499605401      -17.9700102684       -2.2680593846  MEMB      51              0.0000000000
      6872        57  POPS      H15Y           35.0969888358      -17.3442012646       -1.6322166148  MEMB      51              0.0000000000
      6873        57  POPS      C316           33.8138988276      -15.8544059722       -2.5168362350  MEMB      51              0.0000000000
      6874        57  POPS      H16X           32.7442260786      -15.6149787264       -2.4726105918  MEMB      51              0.0000000000
      6875        57  POPS      H16Y           34.1130159784      -15.9866967656       -3.5755710025  MEMB      51              0.0000000000
      6876        57  POPS      H16Z           34.3618937874      -14.9906726449       -2.0925620602  MEMB      51              0.0000000000
      6877        58  POPC      N             -20.7874386939       27.8791098433       20.5895397424  MEMB      52              0.0000000000
      6878        58  POPC      C12           -20.9067132558       27.7799507943       19.0701581859  MEMB      52              0.0000000000
      6879        58  POPC      H12A          -20.9474845209       28.7732260424       18.6452593637  MEMB      52              0.0000000000
      6880        58  POPC      H12B          -21.8676554661       27.3200080068       18.8377460463  MEMB      52              0.0000000000
      6881        58  POPC      C13           -19.4619210263       28.4299148858       20.9985913581  MEMB      52              0.0000000000
      6882        58  POPC      H13A          -19.4473943672       28.6319011774       22.0671386902  MEMB      52              0.0000000000
      6883        58  POPC      H13B          -18.6791620335       27.7284680373       20.7420734824  MEMB      52              0.0000000000
      6884        58  POPC      H13C          -19.2674718156       29.3855984295       20.5271149973  MEMB      52              0.0000000000
      6885        58  POPC      C14           -21.8899562511       28.7429649371       21.1019202785  MEMB      52              0.0000000000
      6886        58  POPC      H14A          -22.0183772978       28.6567133905       22.1750796492  MEMB      52              0.0000000000
      6887        58  POPC      H14B          -21.7356125964       29.7836322315       20.8538439794  MEMB      52              0.0000000000
      6888        58  POPC      H14C          -22.8406051734       28.4486008370       20.6536877232  MEMB      52              0.0000000000
      6889        58  POPC      C15           -20.9707482339       26.5099640520       21.1703428533  MEMB      52              0.0000000000
      6890        58  POPC      H15A          -21.9652450933       26.1345733582       20.9698767874  MEMB      52              0.0000000000
      6891        58  POPC      H15B          -20.7990070928       26.4827801167       22.2357766216  MEMB      52              0.0000000000
      6892        58  POPC      H15C          -20.2926248530       25.8191398342       20.6605190162  MEMB      52              0.0000000000
      6893        58  POPC      C11           -19.8450144171       26.9428052186       18.3078694347  MEMB      52              0.0000000000
      6894        58  POPC      H11A          -18.8360337106       27.3699717915       18.4986075641  MEMB      52              0.0000000000
      6895        58  POPC      H11B          -20.0063139384       27.0463546740       17.2083775957  MEMB      52              0.0000000000
      6896        58  POPC      P             -20.8747384162       24.5425767031       18.0182105498  MEMB      52              0.0000000000
      6897        58  POPC      O13           -21.1642593186       23.4637410519       18.9955866424  MEMB      52              0.0000000000
      6898        58  POPC      O14           -20.3273715403       24.1407754868       16.7044375821  MEMB      52              0.0000000000
      6899        58  POPC      O12           -19.8587564361       25.5679794348       18.6982002713  MEMB      52              0.0000000000
      6900        58  POPC      O11           -22.1597917513       25.4608910507       17.8872276056  MEMB      52              0.0000000000
      6901        58  POPC      C1            -23.4503551266       24.9234616405       17.6393801601  MEMB      52              0.0000000000
      6902        58  POPC      HA            -24.1637540883       25.4864974474       18.2780943268  MEMB      52              0.0000000000
      6903        58  POPC      HB            -23.5373048769       23.8576710793       17.9559089182  MEMB      52              0.0000000000
      6904        58  POPC      C2            -23.9213947569       25.1155627463       16.1576308577  MEMB      52              0.0000000000
      6905        58  POPC      HS            -24.9991888778       24.8344294518       16.1218751508  MEMB      52              0.0000000000
      6906        58  POPC      O21           -23.1848410426       24.3040454571       15.2219476592  MEMB      52              0.0000000000
      6907        58  POPC      C21           -23.3334958648       22.9906436898       15.3647013110  MEMB      52              0.0000000000
      6908        58  POPC      O22           -24.1160359133       22.4315202429       16.1174658187  MEMB      52              0.0000000000
      6909        58  POPC      C22           -22.5000249629       22.2768191644       14.3081854722  MEMB      52              0.0000000000
      6910        58  POPC      H2R           -22.2555132307       21.2668376754       14.6926818668  MEMB      52              0.0000000000
      6911        58  POPC      H2S           -21.5562174181       22.8492374836       14.1944288953  MEMB      52              0.0000000000
      6912        58  POPC      C3            -23.8397450336       26.6260259818       15.7062360336  MEMB      52              0.0000000000
      6913        58  POPC      HX            -24.2464047739       27.2157880399       16.5529472413  MEMB      52              0.0000000000
      6914        58  POPC      HY            -24.5210558344       26.7391828506       14.8346615470  MEMB      52              0.0000000000
      6915        58  POPC      O31           -22.5333765157       27.0950878797       15.3146911406  MEMB      52              0.0000000000
      6916        58  POPC      C31           -22.2095658691       28.3772420443       15.5316834298  MEMB      52              0.0000000000
      6917        58  POPC      O32           -22.8710929856       29.1690803381       16.1750851713  MEMB      52              0.0000000000
      6918        58  POPC      C32           -20.9026906005       28.6956994585       14.8064622204  MEMB      52              0.0000000000
      6919        58  POPC      H2X           -20.0649167794       28.5879464708       15.5222907551  MEMB      52              0.0000000000
      6920        58  POPC      H2Y           -20.9629167049       29.7561551904       14.4849141276  MEMB      52              0.0000000000
      6921        58  POPC      C23           -23.2692257444       22.1817163295       12.9697944551  MEMB      52              0.0000000000
      6922        58  POPC      H3R           -23.6531470261       23.1871272911       12.6791798670  MEMB      52              0.0000000000
      6923        58  POPC      H3S           -24.1449660175       21.5082343698       13.1178564251  MEMB      52              0.0000000000
      6924        58  POPC      C24           -22.3995459138       21.6395722277       11.8313163559  MEMB      52              0.0000000000
      6925        58  POPC      H4R           -23.0556794448       21.2655979918       11.0129624362  MEMB      52              0.0000000000
      6926        58  POPC      H4S           -21.8122856490       20.7818700288       12.2254162009  MEMB      52              0.0000000000
      6927        58  POPC      C25           -21.4493668751       22.6935049664       11.2404550121  MEMB      52              0.0000000000
      6928        58  POPC      H5R           -20.9247897303       23.2309001918       12.0647459963  MEMB      52              0.0000000000
      6929        58  POPC      H5S           -22.0477476785       23.4458286140       10.6801578515  MEMB      52              0.0000000000
      6930        58  POPC      C26           -20.3971875115       22.0592001665       10.3258321659  MEMB      52              0.0000000000
      6931        58  POPC      H6R           -20.8869024565       21.3511806115        9.6194622280  MEMB      52              0.0000000000
      6932        58  POPC      H6S           -19.6981488046       21.4731835615       10.9633015682  MEMB      52              0.0000000000
      6933        58  POPC      C27           -19.5523178591       23.0638638367        9.5306224891  MEMB      52              0.0000000000
      6934        58  POPC      H7R           -18.6958754172       22.4951786687        9.0983121154  MEMB      52              0.0000000000
      6935        58  POPC      H7S           -19.1422959104       23.8356798266       10.2185713321  MEMB      52              0.0000000000
      6936        58  POPC      C28           -20.3183642037       23.7235361676        8.3744408356  MEMB      52              0.0000000000
      6937        58  POPC      H8R           -21.1414482034       24.3529533910        8.7799819104  MEMB      52              0.0000000000
      6938        58  POPC      H8S           -20.8068071148       22.9147755957        7.7890945391  MEMB      52              0.0000000000
      6939        58  POPC      C29           -19.4059411910       24.5558766890        7.5074378124  MEMB      52              0.0000000000
      6940        58  POPC      H91           -19.1905620778       25.5650805456        7.8927805794  MEMB      52              0.0000000000
      6941        58  POPC      C210          -18.8571302273       24.1820479926        6.3378491539  MEMB      52              0.0000000000
      6942        58  POPC      H101          -18.2149961953       24.8978641249        5.8012001274  MEMB      52              0.0000000000
      6943        58  POPC      C211          -19.0312597006       22.8551512157        5.6445732435  MEMB      52              0.0000000000
      6944        58  POPC      H11R          -19.2498745129       22.0403569488        6.3703610203  MEMB      52              0.0000000000
      6945        58  POPC      H11S          -18.0742275318       22.5786095292        5.1491701659  MEMB      52              0.0000000000
      6946        58  POPC      C212          -20.1430524150       22.8738450741        4.5752282349  MEMB      52              0.0000000000
      6947        58  POPC      H12R          -19.9647512344       22.0413353572        3.8677025017  MEMB      52              0.0000000000
      6948        58  POPC      H12S          -20.1006211971       23.8087541202        3.9765668345  MEMB      52              0.0000000000
      6949        58  POPC      C213          -21.5453413980       22.6773870384        5.1672923819  MEMB      52              0.0000000000
      6950        58  POPC      H13R          -21.8111810934       23.5793302927        5.7542243155  MEMB      52              0.0000000000
      6951        58  POPC      H13S          -21.5261131672       21.8282090853        5.8855819711  MEMB      52              0.0000000000
      6952        58  POPC      C214          -22.6512097586       22.4040379339        4.1360948158  MEMB      52              0.0000000000
      6953        58  POPC      H14R          -23.6193148732       22.5997744974        4.6392646032  MEMB      52              0.0000000000
      6954        58  POPC      H14S          -22.6413742546       21.3313949258        3.8453627010  MEMB      52              0.0000000000
      6955        58  POPC      C215          -22.5655132568       23.2502882636        2.8591828964  MEMB      52              0.0000000000
      6956        58  POPC      H15R          -21.7234973043       22.8720729159        2.2381037155  MEMB      52              0.0000000000
      6957        58  POPC      H15S          -22.3348896724       24.3008531221        3.1249965875  MEMB      52              0.0000000000
      6958        58  POPC      C216          -23.8624459541       23.2030603765        2.0395173152  MEMB      52              0.0000000000
      6959        58  POPC      H16R          -24.3155371244       22.1924891958        2.1483738450  MEMB      52              0.0000000000
      6960        58  POPC      H16S          -23.6271352777       23.3470597717        0.9623357533  MEMB      52              0.0000000000
      6961        58  POPC      C217          -24.8728158407       24.2802057127        2.4596920230  MEMB      52              0.0000000000
      6962        58  POPC      H17R          -24.8048266631       24.4447997411        3.5585306933  MEMB      52              0.0000000000
      6963        58  POPC      H17S          -25.9004691934       23.9069013141        2.2530066392  MEMB      52              0.0000000000
      6964        58  POPC      C218          -24.6811318303       25.6044167136        1.7151132087  MEMB      52              0.0000000000
      6965        58  POPC      H18R          -23.6363679996       25.9621328930        1.8178217673  MEMB      52              0.0000000000
      6966        58  POPC      H18S          -25.3539314403       26.3911277834        2.1158624276  MEMB      52              0.0000000000
      6967        58  POPC      H18T          -24.8944822396       25.4765005487        0.6324340681  MEMB      52              0.0000000000
      6968        58  POPC      C33           -20.6864664082       27.7749465788       13.5810580735  MEMB      52              0.0000000000
      6969        58  POPC      H3X           -21.6334851302       27.7205904516       12.9982530921  MEMB      52              0.0000000000
      6970        58  POPC      H3Y           -20.4534090323       26.7404465129       13.9240430062  MEMB      52              0.0000000000
      6971        58  POPC      C34           -19.5746906201       28.2564540203       12.6435600211  MEMB      52              0.0000000000
      6972        58  POPC      H4X           -18.6359454307       28.3615123041       13.2369367505  MEMB      52              0.0000000000
      6973        58  POPC      H4Y           -19.8366375783       29.2604611920       12.2439803456  MEMB      52              0.0000000000
      6974        58  POPC      C35           -19.3117038677       27.2871029852       11.4780619200  MEMB      52              0.0000000000
      6975        58  POPC      H5X           -18.8631765068       26.3562733677       11.8994307880  MEMB      52              0.0000000000
      6976        58  POPC      H5Y           -18.5584867943       27.7425415164       10.7989283047  MEMB      52              0.0000000000
      6977        58  POPC      C36           -20.5461440378       26.8649508565       10.6600778612  MEMB      52              0.0000000000
      6978        58  POPC      H6X           -21.1920943124       26.2139726540       11.2920015512  MEMB      52              0.0000000000
      6979        58  POPC      H6Y           -20.1911594731       26.2377946068        9.8139297654  MEMB      52              0.0000000000
      6980        58  POPC      C37           -21.4011916141       28.0124069076       10.0971264374  MEMB      52              0.0000000000
      6981        58  POPC      H7X           -20.7604095924       28.7228005294        9.5312279987  MEMB      52              0.0000000000
      6982        58  POPC      H7Y           -21.8557255549       28.5724658341       10.9446055604  MEMB      52              0.0000000000
      6983        58  POPC      C38           -22.5286715004       27.4942608271        9.1839013342  MEMB      52              0.0000000000
      6984        58  POPC      H8X           -23.3847968425       28.2031592680        9.2141187874  MEMB      52              0.0000000000
      6985        58  POPC      H8Y           -22.8847113912       26.5179473598        9.5819023983  MEMB      52              0.0000000000
      6986        58  POPC      C39           -22.0807674219       27.3375762639        7.7220084193  MEMB      52              0.0000000000
      6987        58  POPC      H9X           -21.1023073249       26.8104108064        7.7120614898  MEMB      52              0.0000000000
      6988        58  POPC      H9Y           -21.9185422135       28.3475426262        7.2853609482  MEMB      52              0.0000000000
      6989        58  POPC      C310          -23.0562536567       26.5371101943        6.8430644167  MEMB      52              0.0000000000
      6990        58  POPC      H10X          -24.0023597306       27.1029815630        6.7005771625  MEMB      52              0.0000000000
      6991        58  POPC      H10Y          -23.3032732213       25.5885669332        7.3724338641  MEMB      52              0.0000000000
      6992        58  POPC      C311          -22.4508916291       26.1661044429        5.4742450402  MEMB      52              0.0000000000
      6993        58  POPC      H11X          -23.1149201428       25.4334796835        4.9646623148  MEMB      52              0.0000000000
      6994        58  POPC      H11Y          -21.4719129862       25.6721297027        5.6572493993  MEMB      52              0.0000000000
      6995        58  POPC      C312          -22.2326994055       27.3659453619        4.5456743482  MEMB      52              0.0000000000
      6996        58  POPC      H12X          -21.7522094454       28.1810284693        5.1249315569  MEMB      52              0.0000000000
      6997        58  POPC      H12Y          -23.2275470396       27.7168334882        4.1935968108  MEMB      52              0.0000000000
      6998        58  POPC      C313          -21.3386155864       27.1097533479        3.3235693342  MEMB      52              0.0000000000
      6999        58  POPC      H13X          -21.4085881589       28.0087198668        2.6715652391  MEMB      52              0.0000000000
      7000        58  POPC      H13Y          -21.7106467746       26.2449572022        2.7406151896  MEMB      52              0.0000000000
      7001        58  POPC      C314          -19.8598455217       26.8998709621        3.6736534986  MEMB      52              0.0000000000
      7002        58  POPC      H14X          -19.7517398076       26.0072700318        4.3250479973  MEMB      52              0.0000000000
      7003        58  POPC      H14Y          -19.5002905153       27.7833091965        4.2477129329  MEMB      52              0.0000000000
      7004        58  POPC      C315          -18.9935535503       26.7162263308        2.4224945111  MEMB      52              0.0000000000
      7005        58  POPC      H15X          -19.1734913900       27.5803510495        1.7461120451  MEMB      52              0.0000000000
      7006        58  POPC      H15Y          -19.3274439841       25.8010375769        1.8808797814  MEMB      52              0.0000000000
      7007        58  POPC      C316          -17.4993382883       26.6132841505        2.7311173762  MEMB      52              0.0000000000
      7008        58  POPC      H16X          -16.9062918462       26.5644775219        1.7933470431  MEMB      52              0.0000000000
      7009        58  POPC      H16Y          -17.2927966513       25.7001577551        3.3286456161  MEMB      52              0.0000000000
      7010        58  POPC      H16Z          -17.1575870491       27.4946705218        3.3144068746  MEMB      52              0.0000000000
      7011        59  POPC      N             -25.4466864749      -20.0118883707       20.0198217403  MEMB      53              0.0000000000
      7012        59  POPC      C12           -25.3011062441      -20.8975618275       18.7710520653  MEMB      53              0.0000000000
      7013        59  POPC      H12A          -24.2441043006      -21.0554450774       18.5583905744  MEMB      53              0.0000000000
      7014        59  POPC      H12B          -25.7328592536      -20.4089188054       17.9117947900  MEMB      53              0.0000000000
      7015        59  POPC      C13           -24.7137772435      -20.6593353149       21.1516829718  MEMB      53              0.0000000000
      7016        59  POPC      H13A          -23.6371570138      -20.5845692541       21.0468337897  MEMB      53              0.0000000000
      7017        59  POPC      H13B          -25.0022309853      -20.2703640735       22.1191118664  MEMB      53              0.0000000000
      7018        59  POPC      H13C          -24.9253624835      -21.7321736140       21.1655714644  MEMB      53              0.0000000000
      7019        59  POPC      C14           -24.8776874857      -18.6465850434       19.8026714335  MEMB      53              0.0000000000
      7020        59  POPC      H14A          -24.9098189735      -18.0920294795       20.7397941076  MEMB      53              0.0000000000
      7021        59  POPC      H14B          -23.8402203662      -18.7124621859       19.4967387332  MEMB      53              0.0000000000
      7022        59  POPC      H14C          -25.4477666396      -18.1032528020       19.0570061568  MEMB      53              0.0000000000
      7023        59  POPC      C15           -26.8902835283      -19.8898972373       20.4418712859  MEMB      53              0.0000000000
      7024        59  POPC      H15A          -27.5307826397      -19.4936900991       19.6584626651  MEMB      53              0.0000000000
      7025        59  POPC      H15B          -26.9886318374      -19.2435877421       21.3079884125  MEMB      53              0.0000000000
      7026        59  POPC      H15C          -27.2636066708      -20.8753760935       20.7155524129  MEMB      53              0.0000000000
      7027        59  POPC      C11           -25.8743547269      -22.3365502152       18.8175295240  MEMB      53              0.0000000000
      7028        59  POPC      H11A          -25.8737515162      -22.7749956007       17.7882449018  MEMB      53              0.0000000000
      7029        59  POPC      H11B          -26.9365701583      -22.3199265491       19.1451308163  MEMB      53              0.0000000000
      7030        59  POPC      P             -23.8195667097      -23.9342600648       19.3085263303  MEMB      53              0.0000000000
      7031        59  POPC      O13           -24.2038309489      -25.0611256563       18.4372442894  MEMB      53              0.0000000000
      7032        59  POPC      O14           -23.0947706091      -24.2450867013       20.5614213529  MEMB      53              0.0000000000
      7033        59  POPC      O12           -25.1260588046      -23.1303873973       19.7211964204  MEMB      53              0.0000000000
      7034        59  POPC      O11           -23.0333392217      -22.8360671446       18.4602366264  MEMB      53              0.0000000000
      7035        59  POPC      C1            -22.7477821949      -23.0217512398       17.0713864339  MEMB      53              0.0000000000
      7036        59  POPC      HA            -23.5705947815      -23.5411018735       16.5207983709  MEMB      53              0.0000000000
      7037        59  POPC      HB            -21.8309824549      -23.6430650164       16.9735254140  MEMB      53              0.0000000000
      7038        59  POPC      C2            -22.5069494456      -21.6340267246       16.4229594757  MEMB      53              0.0000000000
      7039        59  POPC      HS            -22.2483309995      -20.9390694430       17.2481558478  MEMB      53              0.0000000000
      7040        59  POPC      O21           -23.7317848748      -21.2317872076       15.7742155279  MEMB      53              0.0000000000
      7041        59  POPC      C21           -23.7439256960      -20.0989534946       15.0975619734  MEMB      53              0.0000000000
      7042        59  POPC      O22           -22.8101499827      -19.3373535267       14.9365317292  MEMB      53              0.0000000000
      7043        59  POPC      C22           -25.1852783014      -19.7881643982       14.7004473153  MEMB      53              0.0000000000
      7044        59  POPC      H2R           -25.6439964396      -19.2315204790       15.5437571899  MEMB      53              0.0000000000
      7045        59  POPC      H2S           -25.7529051229      -20.7323061161       14.5573581523  MEMB      53              0.0000000000
      7046        59  POPC      C3            -21.3005786070      -21.6366710174       15.4370330087  MEMB      53              0.0000000000
      7047        59  POPC      HX            -20.4911277470      -22.2623731049       15.8748793187  MEMB      53              0.0000000000
      7048        59  POPC      HY            -20.9153106095      -20.5913948224       15.3732222365  MEMB      53              0.0000000000
      7049        59  POPC      O31           -21.6699066030      -22.1151462282       14.1374104862  MEMB      53              0.0000000000
      7050        59  POPC      C31           -20.7298526495      -21.8661007031       13.2325711747  MEMB      53              0.0000000000
      7051        59  POPC      O32           -19.6488721013      -21.3499646910       13.4485233423  MEMB      53              0.0000000000
      7052        59  POPC      C32           -21.1688641002      -22.5317592003       11.9424048001  MEMB      53              0.0000000000
      7053        59  POPC      H2X           -22.2427697719      -22.3120670734       11.7734743929  MEMB      53              0.0000000000
      7054        59  POPC      H2Y           -21.0598195015      -23.6251294748       12.1157140984  MEMB      53              0.0000000000
      7055        59  POPC      C23           -25.2222005801      -18.9230098158       13.4283013199  MEMB      53              0.0000000000
      7056        59  POPC      H3R           -24.6414008371      -17.9832276224       13.5736538779  MEMB      53              0.0000000000
      7057        59  POPC      H3S           -26.2782459083      -18.6373921746       13.2105912538  MEMB      53              0.0000000000
      7058        59  POPC      C24           -24.6598696708      -19.6961737076       12.2329025697  MEMB      53              0.0000000000
      7059        59  POPC      H4R           -25.2016234593      -20.6637106647       12.1629272232  MEMB      53              0.0000000000
      7060        59  POPC      H4S           -23.5829338295      -19.9292219489       12.4031724268  MEMB      53              0.0000000000
      7061        59  POPC      C25           -24.7681242711      -18.9377490488       10.9086122905  MEMB      53              0.0000000000
      7062        59  POPC      H5R           -24.1388965448      -18.0198342079       10.9745841541  MEMB      53              0.0000000000
      7063        59  POPC      H5S           -25.8188369796      -18.6152946142       10.7341202094  MEMB      53              0.0000000000
      7064        59  POPC      C26           -24.2967666479      -19.7949936073        9.7285447063  MEMB      53              0.0000000000
      7065        59  POPC      H6R           -23.2676485633      -20.1636872350        9.9332698091  MEMB      53              0.0000000000
      7066        59  POPC      H6S           -24.2661254838      -19.1639789094        8.8122260616  MEMB      53              0.0000000000
      7067        59  POPC      C27           -25.1859413935      -21.0141707416        9.4710566076  MEMB      53              0.0000000000
      7068        59  POPC      H7R           -26.2469881738      -20.6840907419        9.3942180493  MEMB      53              0.0000000000
      7069        59  POPC      H7S           -25.1061574588      -21.7057319571       10.3404121704  MEMB      53              0.0000000000
      7070        59  POPC      C28           -24.7838821659      -21.7611413861        8.1905489586  MEMB      53              0.0000000000
      7071        59  POPC      H8R           -23.6949641398      -21.9874180365        8.2275466698  MEMB      53              0.0000000000
      7072        59  POPC      H8S           -24.9420219130      -21.0895339234        7.3184103278  MEMB      53              0.0000000000
      7073        59  POPC      C29           -25.5704232231      -23.0406228660        8.0987477521  MEMB      53              0.0000000000
      7074        59  POPC      H91           -25.4319261773      -23.7221521563        8.9531904824  MEMB      53              0.0000000000
      7075        59  POPC      C210          -26.4144925399      -23.4026316883        7.1240317610  MEMB      53              0.0000000000
      7076        59  POPC      H101          -26.9390233677      -24.3637354662        7.2223349014  MEMB      53              0.0000000000
      7077        59  POPC      C211          -26.7701261747      -22.6108529581        5.8946318331  MEMB      53              0.0000000000
      7078        59  POPC      H11R          -25.9807727708      -21.8859444942        5.5985725836  MEMB      53              0.0000000000
      7079        59  POPC      H11S          -27.6887286795      -22.0184918849        6.1146506212  MEMB      53              0.0000000000
      7080        59  POPC      C212          -27.0902101342      -23.5192351328        4.6947818237  MEMB      53              0.0000000000
      7081        59  POPC      H12R          -27.6976012833      -22.9278400958        3.9722944010  MEMB      53              0.0000000000
      7082        59  POPC      H12S          -27.7087433195      -24.3791477923        5.0287590517  MEMB      53              0.0000000000
      7083        59  POPC      C213          -25.8870477379      -24.0831506413        3.9333801722  MEMB      53              0.0000000000
      7084        59  POPC      H13R          -25.3553446110      -24.8095948834        4.5854349140  MEMB      53              0.0000000000
      7085        59  POPC      H13S          -25.1771695228      -23.2634272590        3.6919103067  MEMB      53              0.0000000000
      7086        59  POPC      C214          -26.3328683576      -24.7710640725        2.6286511142  MEMB      53              0.0000000000
      7087        59  POPC      H14R          -26.5645259716      -23.9890026546        1.8731095999  MEMB      53              0.0000000000
      7088        59  POPC      H14S          -27.2774013956      -25.3276695898        2.8266275169  MEMB      53              0.0000000000
      7089        59  POPC      C215          -25.3137832648      -25.7690394160        2.0552534386  MEMB      53              0.0000000000
      7090        59  POPC      H15R          -25.7171687184      -26.2389990771        1.1318512142  MEMB      53              0.0000000000
      7091        59  POPC      H15S          -25.1931319339      -26.5796643511        2.8023349421  MEMB      53              0.0000000000
      7092        59  POPC      C216          -23.9319433904      -25.1681466228        1.7674225399  MEMB      53              0.0000000000
      7093        59  POPC      H16R          -23.1808847501      -25.9874859668        1.6944972336  MEMB      53              0.0000000000
      7094        59  POPC      H16S          -23.6227989978      -24.5233139183        2.6196066536  MEMB      53              0.0000000000
      7095        59  POPC      C217          -23.8789362373      -24.3549727318        0.4692220736  MEMB      53              0.0000000000
      7096        59  POPC      H17R          -24.8299027247      -23.7924667463        0.3377268351  MEMB      53              0.0000000000
      7097        59  POPC      H17S          -23.7881584437      -25.0545334090       -0.3933048035  MEMB      53              0.0000000000
      7098        59  POPC      C218          -22.7178571575      -23.3619376286        0.4700548388  MEMB      53              0.0000000000
      7099        59  POPC      H18R          -21.7502928434      -23.8857783971        0.6259451806  MEMB      53              0.0000000000
      7100        59  POPC      H18S          -22.8581492728      -22.6250430096        1.2864739509  MEMB      53              0.0000000000
      7101        59  POPC      H18T          -22.6740795933      -22.7979486144       -0.4824431780  MEMB      53              0.0000000000
      7102        59  POPC      C33           -20.3475899029      -22.1480557627       10.6972003473  MEMB      53              0.0000000000
      7103        59  POPC      H3X           -19.2562240264      -22.2419631683       10.9042137956  MEMB      53              0.0000000000
      7104        59  POPC      H3Y           -20.5543506271      -21.0976198335       10.3950273258  MEMB      53              0.0000000000
      7105        59  POPC      C34           -20.7171237620      -23.1089686549        9.5666995397  MEMB      53              0.0000000000
      7106        59  POPC      H4X           -21.8059772566      -23.0269886258        9.3538135563  MEMB      53              0.0000000000
      7107        59  POPC      H4Y           -20.5179688795      -24.1416489485        9.9367713052  MEMB      53              0.0000000000
      7108        59  POPC      C35           -19.9289875463      -22.9154836309        8.2771308372  MEMB      53              0.0000000000
      7109        59  POPC      H5X           -19.4220105065      -23.8778779678        8.0300835957  MEMB      53              0.0000000000
      7110        59  POPC      H5Y           -19.1459689375      -22.1399068434        8.4316563173  MEMB      53              0.0000000000
      7111        59  POPC      C36           -20.7973879263      -22.5266410661        7.0787369130  MEMB      53              0.0000000000
      7112        59  POPC      H6X           -21.1345391760      -21.4749692099        7.2221292777  MEMB      53              0.0000000000
      7113        59  POPC      H6Y           -21.7078454490      -23.1630719561        7.0254242595  MEMB      53              0.0000000000
      7114        59  POPC      C37           -20.0049081487      -22.6639671448        5.7754556170  MEMB      53              0.0000000000
      7115        59  POPC      H7X           -19.9821728861      -23.7178734300        5.4279349492  MEMB      53              0.0000000000
      7116        59  POPC      H7Y           -18.9540180906      -22.3693046859        5.9788408954  MEMB      53              0.0000000000
      7117        59  POPC      C38           -20.4977085360      -21.7319808648        4.6733570142  MEMB      53              0.0000000000
      7118        59  POPC      H8X           -19.6804984334      -21.6066602870        3.9275203216  MEMB      53              0.0000000000
      7119        59  POPC      H8Y           -20.6765907845      -20.7368218721        5.1335448482  MEMB      53              0.0000000000
      7120        59  POPC      C39           -21.7389164239      -22.2424811381        3.9396080646  MEMB      53              0.0000000000
      7121        59  POPC      H9X           -22.0810159572      -23.2001207258        4.3929186708  MEMB      53              0.0000000000
      7122        59  POPC      H9Y           -21.4506448512      -22.4621829676        2.8881547288  MEMB      53              0.0000000000
      7123        59  POPC      C310          -22.9101281904      -21.2526546829        3.9480856198  MEMB      53              0.0000000000
      7124        59  POPC      H10X          -23.3309357574      -21.2009049731        4.9785288343  MEMB      53              0.0000000000
      7125        59  POPC      H10Y          -23.7098694856      -21.6488416871        3.2819585038  MEMB      53              0.0000000000
      7126        59  POPC      C311          -22.5603775807      -19.8247941517        3.4921877254  MEMB      53              0.0000000000
      7127        59  POPC      H11X          -21.9117588410      -19.3313152620        4.2407855195  MEMB      53              0.0000000000
      7128        59  POPC      H11Y          -23.5076958250      -19.2497253876        3.4863884583  MEMB      53              0.0000000000
      7129        59  POPC      C312          -21.8771523106      -19.7322943598        2.1175950433  MEMB      53              0.0000000000
      7130        59  POPC      H12X          -22.4088159476      -20.3946842371        1.4017785390  MEMB      53              0.0000000000
      7131        59  POPC      H12Y          -20.8364395937      -20.1097361356        2.1960381601  MEMB      53              0.0000000000
      7132        59  POPC      C313          -21.8746236740      -18.3043706322        1.5380548730  MEMB      53              0.0000000000
      7133        59  POPC      H13X          -21.4479254974      -18.3427735391        0.5141772068  MEMB      53              0.0000000000
      7134        59  POPC      H13Y          -21.2347966576      -17.6409438720        2.1574095020  MEMB      53              0.0000000000
      7135        59  POPC      C314          -23.2912018131      -17.7262426472        1.4676666963  MEMB      53              0.0000000000
      7136        59  POPC      H14X          -23.5934784175      -17.3452232827        2.4681579337  MEMB      53              0.0000000000
      7137        59  POPC      H14Y          -23.9624589129      -18.5730944455        1.2135833251  MEMB      53              0.0000000000
      7138        59  POPC      C315          -23.5490322914      -16.6467698429        0.4192575103  MEMB      53              0.0000000000
      7139        59  POPC      H15X          -23.1422540757      -16.9721418974       -0.5649320297  MEMB      53              0.0000000000
      7140        59  POPC      H15Y          -23.0462862416      -15.6994027684        0.7044228959  MEMB      53              0.0000000000
      7141        59  POPC      C316          -25.0513930830      -16.4032588208        0.2938424445  MEMB      53              0.0000000000
      7142        59  POPC      H16X          -25.2709778581      -15.5067547234       -0.3125322744  MEMB      53              0.0000000000
      7143        59  POPC      H16Y          -25.5081838822      -16.2585478296        1.2965960364  MEMB      53              0.0000000000
      7144        59  POPC      H16Z          -25.5355416867      -17.2780737428       -0.1904020839  MEMB      53              0.0000000000
      7145        60  POPC      N             -25.5109434307       18.9580901098       19.9044798010  MEMB      54              0.0000000000
      7146        60  POPC      C12           -26.2980754951       18.8448461646       18.5984113158  MEMB      54              0.0000000000
      7147        60  POPC      H12A          -25.7669248221       18.2003746281       17.9186536703  MEMB      54              0.0000000000
      7148        60  POPC      H12B          -26.3275639160       19.8304607604       18.1435990987  MEMB      54              0.0000000000
      7149        60  POPC      C13           -26.1382122930       19.9993735392       20.7701451076  MEMB      54              0.0000000000
      7150        60  POPC      H13A          -25.8214218009       20.9936556360       20.4805695839  MEMB      54              0.0000000000
      7151        60  POPC      H13B          -27.2183031065       19.9245377079       20.7060218689  MEMB      54              0.0000000000
      7152        60  POPC      H13C          -25.8325618680       19.8790529700       21.8097397222  MEMB      54              0.0000000000
      7153        60  POPC      C14           -25.4671906926       17.6781483142       20.6844731556  MEMB      54              0.0000000000
      7154        60  POPC      H14A          -26.4772598859       17.3638197464       20.9360350902  MEMB      54              0.0000000000
      7155        60  POPC      H14B          -24.9414112872       16.9069500107       20.1343461619  MEMB      54              0.0000000000
      7156        60  POPC      H14C          -24.9016435207       17.8366105867       21.6082382520  MEMB      54              0.0000000000
      7157        60  POPC      C15           -24.1015127660       19.3923913599       19.6269855660  MEMB      54              0.0000000000
      7158        60  POPC      H15A          -23.6090510680       19.7051013173       20.5509440816  MEMB      54              0.0000000000
      7159        60  POPC      H15B          -24.0537717876       20.2116096989       18.9248919718  MEMB      54              0.0000000000
      7160        60  POPC      H15C          -23.4820494573       18.5659106374       19.2825942710  MEMB      54              0.0000000000
      7161        60  POPC      C11           -27.7753231124       18.3704957712       18.6256548952  MEMB      54              0.0000000000
      7162        60  POPC      H11A          -27.8511434732       17.4832593986       19.2968027166  MEMB      54              0.0000000000
      7163        60  POPC      H11B          -28.0518001798       18.0321664475       17.5983516982  MEMB      54              0.0000000000
      7164        60  POPC      P             -30.1293528880       19.0282872607       19.4205928987  MEMB      54              0.0000000000
      7165        60  POPC      O13           -30.8908646743       20.1525669033       20.0054817399  MEMB      54              0.0000000000
      7166        60  POPC      O14           -30.0467306844       17.8791048224       20.3480676984  MEMB      54              0.0000000000
      7167        60  POPC      O12           -28.6492436483       19.4386173705       19.0164835422  MEMB      54              0.0000000000
      7168        60  POPC      O11           -30.8402292233       18.5966568135       18.0440887358  MEMB      54              0.0000000000
      7169        60  POPC      C1            -30.6527081141       19.4968177317       16.9266263903  MEMB      54              0.0000000000
      7170        60  POPC      HA            -29.5754254635       19.7097052933       16.7198005216  MEMB      54              0.0000000000
      7171        60  POPC      HB            -31.1558050907       20.4675166654       17.1481561847  MEMB      54              0.0000000000
      7172        60  POPC      C2            -31.2579915750       18.9608188336       15.5889798124  MEMB      54              0.0000000000
      7173        60  POPC      HS            -32.1602965603       18.3685204960       15.8684633821  MEMB      54              0.0000000000
      7174        60  POPC      O21           -30.2970242624       18.1433413439       14.8812920414  MEMB      54              0.0000000000
      7175        60  POPC      C21           -30.8413178719       17.3272657925       13.9666439331  MEMB      54              0.0000000000
      7176        60  POPC      O22           -32.0336572996       17.2182558515       13.7523018611  MEMB      54              0.0000000000
      7177        60  POPC      C22           -29.7546984423       16.4781559648       13.3116435659  MEMB      54              0.0000000000
      7178        60  POPC      H2R           -29.2422562155       17.1190126371       12.5662714848  MEMB      54              0.0000000000
      7179        60  POPC      H2S           -30.2603360632       15.6459205590       12.7792409303  MEMB      54              0.0000000000
      7180        60  POPC      C3            -31.7154747312       20.1415791822       14.6760563168  MEMB      54              0.0000000000
      7181        60  POPC      HX            -32.3753020120       20.7939674585       15.2875741604  MEMB      54              0.0000000000
      7182        60  POPC      HY            -32.3617130835       19.7474956515       13.8569502055  MEMB      54              0.0000000000
      7183        60  POPC      O31           -30.5864456914       20.9266540166       14.2063382164  MEMB      54              0.0000000000
      7184        60  POPC      C31           -30.1690509097       20.5975344185       12.9724314620  MEMB      54              0.0000000000
      7185        60  POPC      O32           -30.7307877346       19.8204321764       12.2254810489  MEMB      54              0.0000000000
      7186        60  POPC      C32           -28.9090195902       21.3514475938       12.5545353152  MEMB      54              0.0000000000
      7187        60  POPC      H2X           -28.5937477780       22.0602879171       13.3442591031  MEMB      54              0.0000000000
      7188        60  POPC      H2Y           -29.1919010958       21.9065250336       11.6397792106  MEMB      54              0.0000000000
      7189        60  POPC      C23           -28.7498363657       15.9125731002       14.3457907132  MEMB      54              0.0000000000
      7190        60  POPC      H3R           -29.3021569905       15.3796485207       15.1505544224  MEMB      54              0.0000000000
      7191        60  POPC      H3S           -28.2298566398       16.7632694562       14.8408149967  MEMB      54              0.0000000000
      7192        60  POPC      C24           -27.6996088773       14.9636010031       13.7424280697  MEMB      54              0.0000000000
      7193        60  POPC      H4R           -28.1900471817       14.0096596526       13.4513423215  MEMB      54              0.0000000000
      7194        60  POPC      H4S           -26.9467834457       14.7194454829       14.5233658316  MEMB      54              0.0000000000
      7195        60  POPC      C25           -26.9670525889       15.5271873782       12.5120043182  MEMB      54              0.0000000000
      7196        60  POPC      H5R           -27.6959611462       15.6703106831       11.6836529367  MEMB      54              0.0000000000
      7197        60  POPC      H5S           -26.2194263192       14.7824038140       12.1553350686  MEMB      54              0.0000000000
      7198        60  POPC      C26           -26.2568892802       16.8644379944       12.7849605813  MEMB      54              0.0000000000
      7199        60  POPC      H6R           -26.5219546543       17.2273666102       13.7999099912  MEMB      54              0.0000000000
      7200        60  POPC      H6S           -26.6079828491       17.6400477003       12.0730293506  MEMB      54              0.0000000000
      7201        60  POPC      C27           -24.7318166310       16.7390999896       12.7416176453  MEMB      54              0.0000000000
      7202        60  POPC      H7R           -24.4542418156       15.7989498975       13.2712895166  MEMB      54              0.0000000000
      7203        60  POPC      H7S           -24.3064229696       17.5934070448       13.3147198623  MEMB      54              0.0000000000
      7204        60  POPC      C28           -24.1185436205       16.7114107350       11.3314396212  MEMB      54              0.0000000000
      7205        60  POPC      H8R           -24.6368688939       15.9308390657       10.7323382333  MEMB      54              0.0000000000
      7206        60  POPC      H8S           -23.0612536251       16.3759029258       11.3758200990  MEMB      54              0.0000000000
      7207        60  POPC      C29           -24.1713590914       18.0801885121       10.7051556839  MEMB      54              0.0000000000
      7208        60  POPC      H91           -23.4029588532       18.7934916351       11.0393622114  MEMB      54              0.0000000000
      7209        60  POPC      C210          -25.0769985747       18.4769877690        9.8033833961  MEMB      54              0.0000000000
      7210        60  POPC      H101          -25.0174535276       19.4999090918        9.4008337917  MEMB      54              0.0000000000
      7211        60  POPC      C211          -26.1940708556       17.6245573883        9.2638023334  MEMB      54              0.0000000000
      7212        60  POPC      H11R          -27.1823774344       18.1124849155        9.4054780001  MEMB      54              0.0000000000
      7213        60  POPC      H11S          -26.2766869850       16.6423617208        9.7766474324  MEMB      54              0.0000000000
      7214        60  POPC      C212          -25.9564793680       17.3793668841        7.7771901964  MEMB      54              0.0000000000
      7215        60  POPC      H12R          -24.9008503665       17.0779519643        7.5889992173  MEMB      54              0.0000000000
      7216        60  POPC      H12S          -26.1441578687       18.3265020307        7.2245350706  MEMB      54              0.0000000000
      7217        60  POPC      C213          -26.8462893165       16.2579600569        7.2473473949  MEMB      54              0.0000000000
      7218        60  POPC      H13R          -27.9056152417       16.5626168044        7.3574633741  MEMB      54              0.0000000000
      7219        60  POPC      H13S          -26.6869983634       15.3447520858        7.8657515523  MEMB      54              0.0000000000
      7220        60  POPC      C214          -26.5430431482       15.9315146348        5.7849749724  MEMB      54              0.0000000000
      7221        60  POPC      H14R          -27.1287473938       15.0354759780        5.4828733770  MEMB      54              0.0000000000
      7222        60  POPC      H14S          -25.4615056270       15.6860720796        5.6885322465  MEMB      54              0.0000000000
      7223        60  POPC      C215          -26.8531389207       17.0994179509        4.8474122657  MEMB      54              0.0000000000
      7224        60  POPC      H15R          -26.2187315464       17.9694878207        5.1311534285  MEMB      54              0.0000000000
      7225        60  POPC      H15S          -27.9171153329       17.3988822111        4.9748302145  MEMB      54              0.0000000000
      7226        60  POPC      C216          -26.5704641841       16.7757223471        3.3797604827  MEMB      54              0.0000000000
      7227        60  POPC      H16R          -25.5923154639       16.2572597870        3.3048205336  MEMB      54              0.0000000000
      7228        60  POPC      H16S          -26.4751397131       17.7243173920        2.8039670196  MEMB      54              0.0000000000
      7229        60  POPC      C217          -27.6727632142       15.9383640898        2.7287215113  MEMB      54              0.0000000000
      7230        60  POPC      H17R          -28.6004739444       16.5552379219        2.6824244824  MEMB      54              0.0000000000
      7231        60  POPC      H17S          -27.9003786232       15.0467560464        3.3557151180  MEMB      54              0.0000000000
      7232        60  POPC      C218          -27.2830396356       15.4807177280        1.3248466891  MEMB      54              0.0000000000
      7233        60  POPC      H18R          -26.5601380851       14.6417814720        1.3821966066  MEMB      54              0.0000000000
      7234        60  POPC      H18S          -26.8055917248       16.3113919393        0.7655476246  MEMB      54              0.0000000000
      7235        60  POPC      H18T          -28.1756172321       15.1464756274        0.7581229282  MEMB      54              0.0000000000
      7236        60  POPC      C33           -27.7584050115       20.4234033755       12.1051614093  MEMB      54              0.0000000000
      7237        60  POPC      H3X           -28.1151080798       19.6857031265       11.3510730554  MEMB      54              0.0000000000
      7238        60  POPC      H3Y           -27.4176651699       19.8462575868       12.9954784036  MEMB      54              0.0000000000
      7239        60  POPC      C34           -26.5417623097       21.1861440788       11.5374532823  MEMB      54              0.0000000000
      7240        60  POPC      H4X           -25.7043844798       20.4615148619       11.4738504897  MEMB      54              0.0000000000
      7241        60  POPC      H4Y           -26.2367604610       21.9578967043       12.2799869025  MEMB      54              0.0000000000
      7242        60  POPC      C35           -26.6877689138       21.8717492989       10.1570969473  MEMB      54              0.0000000000
      7243        60  POPC      H5X           -25.6669122586       22.0349325922        9.7417311006  MEMB      54              0.0000000000
      7244        60  POPC      H5Y           -27.1185065165       22.8808971611       10.3216359815  MEMB      54              0.0000000000
      7245        60  POPC      C36           -27.5427918242       21.1321053921        9.1095949817  MEMB      54              0.0000000000
      7246        60  POPC      H6X           -28.5642275666       20.9802773003        9.5267964072  MEMB      54              0.0000000000
      7247        60  POPC      H6Y           -27.1202523627       20.1341561215        8.8935017135  MEMB      54              0.0000000000
      7248        60  POPC      C37           -27.6903502271       21.8835376121        7.7746538294  MEMB      54              0.0000000000
      7249        60  POPC      H7X           -27.8515169714       22.9663253095        7.9719920134  MEMB      54              0.0000000000
      7250        60  POPC      H7Y           -28.5954126610       21.4978371513        7.2522971984  MEMB      54              0.0000000000
      7251        60  POPC      C38           -26.4970444693       21.7124783917        6.8264177217  MEMB      54              0.0000000000
      7252        60  POPC      H8X           -26.4471820768       20.6630898236        6.4635168971  MEMB      54              0.0000000000
      7253        60  POPC      H8Y           -25.5601454051       21.9196533776        7.3912329895  MEMB      54              0.0000000000
      7254        60  POPC      C39           -26.5575090245       22.6786317481        5.6345283761  MEMB      54              0.0000000000
      7255        60  POPC      H9X           -25.6110937734       22.6207211101        5.0602085931  MEMB      54              0.0000000000
      7256        60  POPC      H9Y           -26.6166768731       23.7045111785        6.0528869147  MEMB      54              0.0000000000
      7257        60  POPC      C310          -27.7184807875       22.4467919310        4.6489804757  MEMB      54              0.0000000000
      7258        60  POPC      H10X          -27.7673393985       23.3323111780        3.9725358561  MEMB      54              0.0000000000
      7259        60  POPC      H10Y          -28.6912030343       22.3984861564        5.1800338910  MEMB      54              0.0000000000
      7260        60  POPC      C311          -27.5097937095       21.2035602096        3.7674948917  MEMB      54              0.0000000000
      7261        60  POPC      H11X          -26.4494188562       20.8783839426        3.8708163069  MEMB      54              0.0000000000
      7262        60  POPC      H11Y          -27.6442155645       21.4752794306        2.6992097829  MEMB      54              0.0000000000
      7263        60  POPC      C312          -28.4144200914       20.0112958054        4.1161209711  MEMB      54              0.0000000000
      7264        60  POPC      H12X          -28.3571776239       19.8084748114        5.2090838562  MEMB      54              0.0000000000
      7265        60  POPC      H12Y          -28.0138407168       19.1246273929        3.5792795918  MEMB      54              0.0000000000
      7266        60  POPC      C313          -29.8846992935       20.1317885607        3.6879620199  MEMB      54              0.0000000000
      7267        60  POPC      H13X          -30.3537587917       20.9944129821        4.2070780942  MEMB      54              0.0000000000
      7268        60  POPC      H13Y          -30.4163394681       19.2138555751        4.0273215886  MEMB      54              0.0000000000
      7269        60  POPC      C314          -30.0603515034       20.2585632068        2.1646137441  MEMB      54              0.0000000000
      7270        60  POPC      H14X          -29.5586063215       19.4098081722        1.6511193924  MEMB      54              0.0000000000
      7271        60  POPC      H14Y          -29.5607449390       21.1925448024        1.8256317958  MEMB      54              0.0000000000
      7272        60  POPC      C315          -31.5309755534       20.3210574945        1.7354413385  MEMB      54              0.0000000000
      7273        60  POPC      H15X          -32.0790928119       20.9531473179        2.4703356543  MEMB      54              0.0000000000
      7274        60  POPC      H15Y          -31.9773983216       19.3061685323        1.7795470127  MEMB      54              0.0000000000
      7275        60  POPC      C316          -31.7497793382       20.9000096243        0.3368795827  MEMB      54              0.0000000000
      7276        60  POPC      H16X          -30.9921987422       21.6764562557        0.1006984528  MEMB      54              0.0000000000
      7277        60  POPC      H16Y          -32.7557499727       21.3663414607        0.2791980237  MEMB      54              0.0000000000
      7278        60  POPC      H16Z          -31.6991591659       20.1012402894       -0.4316504957  MEMB      54              0.0000000000
      7279        61  POPS      N              21.4838044616       24.0415963538       18.4039413677  MEMB      55              0.0000000000
      7280        61  POPS      HN1            22.0294357609       23.5823674774       17.6513405913  MEMB      55              0.0000000000
      7281        61  POPS      HN2            20.8929308063       23.3684043985       18.9384879777  MEMB      55              0.0000000000
      7282        61  POPS      HN3            20.8146514058       24.7488247404       18.0440586476  MEMB      55              0.0000000000
      7283        61  POPS      C12            22.4111226105       24.7632862285       19.3420779273  MEMB      55              0.0000000000
      7284        61  POPS      H12A           23.1452471486       24.0711051197       19.7290352991  MEMB      55              0.0000000000
      7285        61  POPS      C13            21.6123799166       25.3513978647       20.5340154832  MEMB      55              0.0000000000
      7286        61  POPS      O13A           20.3850473335       25.5453648827       20.3381612993  MEMB      55              0.0000000000
      7287        61  POPS      O13B           22.1610328247       25.5266502958       21.6550699507  MEMB      55              0.0000000000
      7288        61  POPS      C11            23.0936911356       25.8852310165       18.5028623386  MEMB      55              0.0000000000
      7289        61  POPS      H11A           22.3674429875       26.7136677730       18.3431292480  MEMB      55              0.0000000000
      7290        61  POPS      H11B           23.3799335832       25.4834515165       17.4990369047  MEMB      55              0.0000000000
      7291        61  POPS      P              25.4011324107       27.1356325522       18.4006917347  MEMB      55              0.0000000000
      7292        61  POPS      O13            26.0959246754       26.1095734320       17.5909210937  MEMB      55              0.0000000000
      7293        61  POPS      O14            26.2017515989       27.8154329999       19.4399435334  MEMB      55              0.0000000000
      7294        61  POPS      O12            24.2391992748       26.3793659594       19.1767903077  MEMB      55              0.0000000000
      7295        61  POPS      O11            24.5849046086       28.1821493414       17.5102469214  MEMB      55              0.0000000000
      7296        61  POPS      C1             23.8412634078       29.2103404594       18.2004912531  MEMB      55              0.0000000000
      7297        61  POPS      HA             24.5104089405       30.0840179556       18.3844485019  MEMB      55              0.0000000000
      7298        61  POPS      HB             23.4518083607       28.8501822958       19.1844345678  MEMB      55              0.0000000000
      7299        61  POPS      C2             22.5736368789       29.7223257573       17.4335269673  MEMB      55              0.0000000000
      7300        61  POPS      HS             21.9254679762       30.2490441326       18.1708960222  MEMB      55              0.0000000000
      7301        61  POPS      O21            21.8754616775       28.5881030867       16.8702552453  MEMB      55              0.0000000000
      7302        61  POPS      C21            20.6837344380       28.8044300806       16.3296928445  MEMB      55              0.0000000000
      7303        61  POPS      O22            20.1392840836       29.8844462759       16.2025057691  MEMB      55              0.0000000000
      7304        61  POPS      C22            20.1019017410       27.4339302754       15.9321087770  MEMB      55              0.0000000000
      7305        61  POPS      H2R            19.1681114062       27.6519520248       15.3805210540  MEMB      55              0.0000000000
      7306        61  POPS      H2S            19.8146994427       26.8991650826       16.8585700885  MEMB      55              0.0000000000
      7307        61  POPS      C3             23.0021374990       30.7627563652       16.3444593925  MEMB      55              0.0000000000
      7308        61  POPS      HX             23.3756093771       31.6471588504       16.9110918927  MEMB      55              0.0000000000
      7309        61  POPS      HY             22.1463609299       31.1174471566       15.7325752991  MEMB      55              0.0000000000
      7310        61  POPS      O31            24.0898287748       30.2894832818       15.5360106204  MEMB      55              0.0000000000
      7311        61  POPS      C31            23.7553959249       29.4159194983       14.6131390294  MEMB      55              0.0000000000
      7312        61  POPS      O32            22.6415623824       29.2765856168       14.1423525763  MEMB      55              0.0000000000
      7313        61  POPS      C32            25.0127194534       28.7051555194       14.1465757196  MEMB      55              0.0000000000
      7314        61  POPS      H2X            25.7969560614       28.8318161626       14.9294363942  MEMB      55              0.0000000000
      7315        61  POPS      H2Y            25.3578701958       29.1828508883       13.2078560412  MEMB      55              0.0000000000
      7316        61  POPS      C23            21.0708374199       26.5679929192       15.0776624505  MEMB      55              0.0000000000
      7317        61  POPS      H3R            21.7718533780       26.0168682610       15.7391071493  MEMB      55              0.0000000000
      7318        61  POPS      H3S            21.6940769827       27.2205476982       14.4318991891  MEMB      55              0.0000000000
      7319        61  POPS      C24            20.3709078482       25.6141974328       14.0998826826  MEMB      55              0.0000000000
      7320        61  POPS      H4R            19.6129888808       25.0243430210       14.6591983501  MEMB      55              0.0000000000
      7321        61  POPS      H4S            21.1118001134       24.8989546828       13.6734080144  MEMB      55              0.0000000000
      7322        61  POPS      C25            19.6763359924       26.3502150333       12.9399170521  MEMB      55              0.0000000000
      7323        61  POPS      H5R            19.0212035322       27.1421814227       13.3556603125  MEMB      55              0.0000000000
      7324        61  POPS      H5S            19.0005259834       25.6435134116       12.4195158613  MEMB      55              0.0000000000
      7325        61  POPS      C26            20.5850033655       27.0139182230       11.8798787892  MEMB      55              0.0000000000
      7326        61  POPS      H6R            21.0997481845       27.8974270247       12.3181680478  MEMB      55              0.0000000000
      7327        61  POPS      H6S            19.9136390137       27.3976955724       11.0760474590  MEMB      55              0.0000000000
      7328        61  POPS      C27            21.6234041710       26.0891633140       11.2222490826  MEMB      55              0.0000000000
      7329        61  POPS      H7R            21.2492881049       25.0454492406       11.2774418550  MEMB      55              0.0000000000
      7330        61  POPS      H7S            22.5714932852       26.1127195910       11.7991668379  MEMB      55              0.0000000000
      7331        61  POPS      C28            21.8847277501       26.3943719694        9.7264321184  MEMB      55              0.0000000000
      7332        61  POPS      H8R            20.9185941731       26.2815113107        9.1858605063  MEMB      55              0.0000000000
      7333        61  POPS      H8S            22.5517741752       25.5945157011        9.3327250702  MEMB      55              0.0000000000
      7334        61  POPS      C29            22.5272236467       27.7391774523        9.4810801504  MEMB      55              0.0000000000
      7335        61  POPS      H91            23.5591357242       27.8250881202        9.8561236849  MEMB      55              0.0000000000
      7336        61  POPS      C210           21.9642546323       28.8181946090        8.9027193412  MEMB      55              0.0000000000
      7337        61  POPS      H101           22.5584943383       29.7407579148        8.8170820246  MEMB      55              0.0000000000
      7338        61  POPS      C211           20.5605993709       28.9444908969        8.3643492073  MEMB      55              0.0000000000
      7339        61  POPS      H11R           19.9709136122       29.5409355368        9.0976408538  MEMB      55              0.0000000000
      7340        61  POPS      H11S           20.0492258033       27.9632875367        8.2633192216  MEMB      55              0.0000000000
      7341        61  POPS      C212           20.4771029877       29.6883974823        7.0159591091  MEMB      55              0.0000000000
      7342        61  POPS      H12R           21.0824026491       30.6136927724        7.0636782322  MEMB      55              0.0000000000
      7343        61  POPS      H12S           19.4223538669       30.0054171847        6.8500471977  MEMB      55              0.0000000000
      7344        61  POPS      C213           20.9219095994       28.8784836381        5.7903458484  MEMB      55              0.0000000000
      7345        61  POPS      H13R           20.2227782351       28.0257927401        5.6392910687  MEMB      55              0.0000000000
      7346        61  POPS      H13S           21.9378262638       28.4590288054        5.9631280963  MEMB      55              0.0000000000
      7347        61  POPS      C214           20.9417739851       29.7563089688        4.5294940984  MEMB      55              0.0000000000
      7348        61  POPS      H14R           21.7238592116       30.5408065116        4.6463746502  MEMB      55              0.0000000000
      7349        61  POPS      H14S           19.9591880299       30.2718887001        4.4284309195  MEMB      55              0.0000000000
      7350        61  POPS      C215           21.2080357455       28.9627599526        3.2467286813  MEMB      55              0.0000000000
      7351        61  POPS      H15R           20.3789253616       28.2335259285        3.0986376960  MEMB      55              0.0000000000
      7352        61  POPS      H15S           22.1488561446       28.3814486050        3.3545790217  MEMB      55              0.0000000000
      7353        61  POPS      C216           21.3228481952       29.8588895465        2.0080788208  MEMB      55              0.0000000000
      7354        61  POPS      H16R           22.2059309633       30.5282872964        2.1171796926  MEMB      55              0.0000000000
      7355        61  POPS      H16S           20.4164647453       30.5020814242        1.9308466803  MEMB      55              0.0000000000
      7356        61  POPS      C217           21.4606015723       29.0395195995        0.7220073480  MEMB      55              0.0000000000
      7357        61  POPS      H17R           20.5730882714       28.3717235255        0.6395510501  MEMB      55              0.0000000000
      7358        61  POPS      H17S           22.3616081480       28.3878636338        0.7989728643  MEMB      55              0.0000000000
      7359        61  POPS      C218           21.5636936675       29.8958760354       -0.5403464598  MEMB      55              0.0000000000
      7360        61  POPS      H18R           21.5872422631       29.2565216057       -1.4484740697  MEMB      55              0.0000000000
      7361        61  POPS      H18S           22.4903217263       30.5083066992       -0.5202181738  MEMB      55              0.0000000000
      7362        61  POPS      H18T           20.6884987917       30.5749364594       -0.6247963633  MEMB      55              0.0000000000
      7363        61  POPS      C33            24.7652598656       27.2067632131       13.9344850191  MEMB      55              0.0000000000
      7364        61  POPS      H3X            24.0054742766       27.0472707035       13.1375038676  MEMB      55              0.0000000000
      7365        61  POPS      H3Y            24.3870401401       26.7402833991       14.8750067223  MEMB      55              0.0000000000
      7366        61  POPS      C34            26.0751232524       26.5336315270       13.5477519958  MEMB      55              0.0000000000
      7367        61  POPS      H4X            26.8118486683       26.6860014653       14.3703554573  MEMB      55              0.0000000000
      7368        61  POPS      H4Y            26.4666302710       27.0445805371       12.6377723707  MEMB      55              0.0000000000
      7369        61  POPS      C35            25.9210859472       25.0413961463       13.2735328763  MEMB      55              0.0000000000
      7370        61  POPS      H5X            24.8554683596       24.7792760950       13.0885740946  MEMB      55              0.0000000000
      7371        61  POPS      H5Y            26.2448429951       24.4764598556       14.1774498048  MEMB      55              0.0000000000
      7372        61  POPS      C36            26.7580138575       24.6220385696       12.0654789163  MEMB      55              0.0000000000
      7373        61  POPS      H6X            27.1700636871       23.6144738617       12.2525091800  MEMB      55              0.0000000000
      7374        61  POPS      H6Y            27.6356618485       25.2888353222       11.9667156455  MEMB      55              0.0000000000
      7375        61  POPS      C37            25.9668172171       24.6121937242       10.7533432549  MEMB      55              0.0000000000
      7376        61  POPS      H7X            25.8061360268       25.6581535022       10.4090188911  MEMB      55              0.0000000000
      7377        61  POPS      H7Y            24.9671545654       24.1479433405       10.9162767789  MEMB      55              0.0000000000
      7378        61  POPS      C38            26.7203015946       23.8186130675        9.6845501927  MEMB      55              0.0000000000
      7379        61  POPS      H8X            26.6914008976       22.7497555970        9.9690780129  MEMB      55              0.0000000000
      7380        61  POPS      H8Y            27.7866027662       24.1327873136        9.6912810554  MEMB      55              0.0000000000
      7381        61  POPS      C39            26.1712054431       23.9950294047        8.2678369431  MEMB      55              0.0000000000
      7382        61  POPS      H9X            26.8625677970       23.4846399751        7.5576039083  MEMB      55              0.0000000000
      7383        61  POPS      H9Y            26.1876627299       25.0816198875        8.0336607381  MEMB      55              0.0000000000
      7384        61  POPS      C310           24.7590249112       23.4245562098        8.0696661375  MEMB      55              0.0000000000
      7385        61  POPS      H10X           24.0321778516       23.9643549350        8.7143410116  MEMB      55              0.0000000000
      7386        61  POPS      H10Y           24.7564499500       22.3572361691        8.3885050428  MEMB      55              0.0000000000
      7387        61  POPS      C311           24.3002025844       23.4989506813        6.6072079234  MEMB      55              0.0000000000
      7388        61  POPS      H11X           23.3118561391       23.0017251715        6.5000965322  MEMB      55              0.0000000000
      7389        61  POPS      H11Y           25.0285994380       22.9273106599        5.9882556874  MEMB      55              0.0000000000
      7390        61  POPS      C312           24.2092468438       24.9319906410        6.0626595716  MEMB      55              0.0000000000
      7391        61  POPS      H12X           25.1686825239       25.4591345003        6.2571730964  MEMB      55              0.0000000000
      7392        61  POPS      H12Y           23.4031768030       25.4945916364        6.5830495827  MEMB      55              0.0000000000
      7393        61  POPS      C313           23.9852298189       24.9592355479        4.5478438457  MEMB      55              0.0000000000
      7394        61  POPS      H13X           22.9332872737       24.6807030628        4.3198312182  MEMB      55              0.0000000000
      7395        61  POPS      H13Y           24.6487472391       24.1845785759        4.1022574505  MEMB      55              0.0000000000
      7396        61  POPS      C314           24.3224241415       26.3205390164        3.9249682889  MEMB      55              0.0000000000
      7397        61  POPS      H14X           25.3213638663       26.6540526495        4.2861468827  MEMB      55              0.0000000000
      7398        61  POPS      H14Y           23.5812305212       27.0679333418        4.2824320316  MEMB      55              0.0000000000
      7399        61  POPS      C315           24.3560182931       26.3033648310        2.3886113601  MEMB      55              0.0000000000
      7400        61  POPS      H15X           24.4844994071       27.3532069277        2.0349994971  MEMB      55              0.0000000000
      7401        61  POPS      H15Y           23.3735064570       25.9468235018        2.0039913673  MEMB      55              0.0000000000
      7402        61  POPS      C316           25.4858379301       25.4465094890        1.8029308739  MEMB      55              0.0000000000
      7403        61  POPS      H16X           26.4705258564       25.7966377229        2.1785760844  MEMB      55              0.0000000000
      7404        61  POPS      H16Y           25.4904232364       25.5039631930        0.6951223246  MEMB      55              0.0000000000
      7405        61  POPS      H16Z           25.3756616563       24.3798588597        2.0852982736  MEMB      55              0.0000000000
      7406        62  POPC      N             -16.4777487268      -34.1307754851       20.0738024435  MEMB      56              0.0000000000
      7407        62  POPC      C12           -15.2957296257      -33.1678788300       20.0517711799  MEMB      56              0.0000000000
      7408        62  POPC      H12A          -14.7095212181      -33.2727800296       20.9593810742  MEMB      56              0.0000000000
      7409        62  POPC      H12B          -15.6498245763      -32.1378348613       20.0296073975  MEMB      56              0.0000000000
      7410        62  POPC      C13           -17.1559801779      -34.0568178923       18.7367066310  MEMB      56              0.0000000000
      7411        62  POPC      H13A          -16.4434123384      -34.3913334738       17.9719612559  MEMB      56              0.0000000000
      7412        62  POPC      H13B          -18.0218695172      -34.6952173325       18.6790075999  MEMB      56              0.0000000000
      7413        62  POPC      H13C          -17.4465847553      -33.0443736870       18.4907162105  MEMB      56              0.0000000000
      7414        62  POPC      C14           -15.9630834810      -35.5198652816       20.2909680179  MEMB      56              0.0000000000
      7415        62  POPC      H14A          -15.2779168028      -35.7600888142       19.4708853910  MEMB      56              0.0000000000
      7416        62  POPC      H14B          -15.3545474956      -35.5435970922       21.1825367023  MEMB      56              0.0000000000
      7417        62  POPC      H14C          -16.7374793801      -36.2655997262       20.2998359560  MEMB      56              0.0000000000
      7418        62  POPC      C15           -17.4465398388      -33.7568583037       21.1298713319  MEMB      56              0.0000000000
      7419        62  POPC      H15A          -18.3021443302      -34.4162799389       21.1605583025  MEMB      56              0.0000000000
      7420        62  POPC      H15B          -17.8041066106      -32.7439455450       20.9927537682  MEMB      56              0.0000000000
      7421        62  POPC      H15C          -17.0032444274      -33.7554507947       22.1316799941  MEMB      56              0.0000000000
      7422        62  POPC      C11           -14.2793239931      -33.3104017646       18.8962614921  MEMB      56              0.0000000000
      7423        62  POPC      H11A          -13.4735880808      -32.5606837274       19.0104430037  MEMB      56              0.0000000000
      7424        62  POPC      H11B          -14.7841936302      -33.0598934360       17.9323597373  MEMB      56              0.0000000000
      7425        62  POPC      P             -13.5784802716      -35.4303771746       17.6031352290  MEMB      56              0.0000000000
      7426        62  POPC      O13           -14.9482522495      -35.4663620692       17.0349128204  MEMB      56              0.0000000000
      7427        62  POPC      O14           -12.9214980531      -36.7187541059       17.9411036870  MEMB      56              0.0000000000
      7428        62  POPC      O12           -13.6560650584      -34.5868535560       18.9298021771  MEMB      56              0.0000000000
      7429        62  POPC      O11           -12.6226671734      -34.5297485352       16.7353142886  MEMB      56              0.0000000000
      7430        62  POPC      C1            -11.4258848508      -34.0184004511       17.3383397055  MEMB      56              0.0000000000
      7431        62  POPC      HA            -10.8498987197      -34.8170975014       17.8641339973  MEMB      56              0.0000000000
      7432        62  POPC      HB            -11.6545146874      -33.2240250725       18.0846900216  MEMB      56              0.0000000000
      7433        62  POPC      C2            -10.5107606874      -33.4094262162       16.2506564572  MEMB      56              0.0000000000
      7434        62  POPC      HS             -9.7494513984      -32.7711194742       16.7492197237  MEMB      56              0.0000000000
      7435        62  POPC      O21           -11.2633518693      -32.6513221088       15.2860234967  MEMB      56              0.0000000000
      7436        62  POPC      C21           -11.8832764589      -31.5930036500       15.7804198216  MEMB      56              0.0000000000
      7437        62  POPC      O22           -11.6180112244      -31.0505959459       16.8336293845  MEMB      56              0.0000000000
      7438        62  POPC      C22           -13.0074695091      -31.1574910152       14.8383429015  MEMB      56              0.0000000000
      7439        62  POPC      H2R           -12.8950708458      -30.0682237685       14.6902435046  MEMB      56              0.0000000000
      7440        62  POPC      H2S           -13.9569992004      -31.3345731562       15.3803839973  MEMB      56              0.0000000000
      7441        62  POPC      C3             -9.7579113638      -34.5539657824       15.5276606536  MEMB      56              0.0000000000
      7442        62  POPC      HX             -9.0937017886      -35.0138817938       16.2894685927  MEMB      56              0.0000000000
      7443        62  POPC      HY             -9.1139721931      -34.1341712188       14.7209256129  MEMB      56              0.0000000000
      7444        62  POPC      O31           -10.6610281775      -35.5778328257       15.0637309855  MEMB      56              0.0000000000
      7445        62  POPC      C31           -11.2605631201      -35.2672451523       13.9089163864  MEMB      56              0.0000000000
      7446        62  POPC      O32           -10.7976026596      -34.4873214817       13.0914352919  MEMB      56              0.0000000000
      7447        62  POPC      C32           -12.5805478923      -36.0233747078       13.7570233153  MEMB      56              0.0000000000
      7448        62  POPC      H2X           -13.4035861016      -35.2985129012       13.9192453003  MEMB      56              0.0000000000
      7449        62  POPC      H2Y           -12.6333019585      -36.7771880196       14.5695954873  MEMB      56              0.0000000000
      7450        62  POPC      C23           -13.0351934118      -31.8979091860       13.4865049955  MEMB      56              0.0000000000
      7451        62  POPC      H3R           -13.2908146974      -32.9681482297       13.6585750885  MEMB      56              0.0000000000
      7452        62  POPC      H3S           -12.0251979899      -31.8768655701       13.0169943028  MEMB      56              0.0000000000
      7453        62  POPC      C24           -14.0396380704      -31.2987022312       12.4968121682  MEMB      56              0.0000000000
      7454        62  POPC      H4R           -13.7590194046      -30.2456854457       12.2724488217  MEMB      56              0.0000000000
      7455        62  POPC      H4S           -15.0529060111      -31.2843947262       12.9549945101  MEMB      56              0.0000000000
      7456        62  POPC      C25           -14.0718719652      -32.1212282671       11.2034803012  MEMB      56              0.0000000000
      7457        62  POPC      H5R           -14.5427292018      -33.1046728044       11.4209087319  MEMB      56              0.0000000000
      7458        62  POPC      H5S           -13.0258949764      -32.3200619276       10.8744669957  MEMB      56              0.0000000000
      7459        62  POPC      C26           -14.8214910255      -31.4456667145       10.0493176879  MEMB      56              0.0000000000
      7460        62  POPC      H6R           -14.3372521478      -30.4688359191        9.8224597928  MEMB      56              0.0000000000
      7461        62  POPC      H6S           -15.8702266174      -31.2447620836       10.3536626484  MEMB      56              0.0000000000
      7462        62  POPC      C27           -14.8112698089      -32.3264679276        8.7922631899  MEMB      56              0.0000000000
      7463        62  POPC      H7R           -15.4030381975      -33.2457982081        9.0006613225  MEMB      56              0.0000000000
      7464        62  POPC      H7S           -13.7587854790      -32.6340664059        8.5900454410  MEMB      56              0.0000000000
      7465        62  POPC      C28           -15.3689922851      -31.6084420306        7.5540875525  MEMB      56              0.0000000000
      7466        62  POPC      H8R           -14.7472894636      -30.6987938029        7.4071609728  MEMB      56              0.0000000000
      7467        62  POPC      H8S           -16.4039772088      -31.2663905780        7.7797035465  MEMB      56              0.0000000000
      7468        62  POPC      C29           -15.3844913304      -32.4809812708        6.3250950702  MEMB      56              0.0000000000
      7469        62  POPC      H91           -16.0927407253      -33.3228253351        6.3736977488  MEMB      56              0.0000000000
      7470        62  POPC      C210          -14.6354664606      -32.3398331182        5.2147486207  MEMB      56              0.0000000000
      7471        62  POPC      H101          -14.7614151474      -33.0797920608        4.4128490413  MEMB      56              0.0000000000
      7472        62  POPC      C211          -13.6008674610      -31.2773408049        4.9313031265  MEMB      56              0.0000000000
      7473        62  POPC      H11R          -13.6875402264      -30.4438628549        5.6558038260  MEMB      56              0.0000000000
      7474        62  POPC      H11S          -13.7671203391      -30.8263591092        3.9291957287  MEMB      56              0.0000000000
      7475        62  POPC      C212          -12.1387724205      -31.7597616211        5.0345508536  MEMB      56              0.0000000000
      7476        62  POPC      H12R          -12.0757178320      -32.7174025963        5.5893108724  MEMB      56              0.0000000000
      7477        62  POPC      H12S          -11.6005472416      -31.0064602546        5.6446458052  MEMB      56              0.0000000000
      7478        62  POPC      C213          -11.3939227328      -31.8821447066        3.6975878053  MEMB      56              0.0000000000
      7479        62  POPC      H13R          -12.0277412750      -32.4044202161        2.9600205146  MEMB      56              0.0000000000
      7480        62  POPC      H13S          -10.4885508771      -32.5115536405        3.8437944832  MEMB      56              0.0000000000
      7481        62  POPC      C214          -10.9708617309      -30.5216789797        3.1273318994  MEMB      56              0.0000000000
      7482        62  POPC      H14R          -10.1809499292      -30.0888555195        3.7769633868  MEMB      56              0.0000000000
      7483        62  POPC      H14S          -11.8327448804      -29.8229651935        3.1778077536  MEMB      56              0.0000000000
      7484        62  POPC      C215          -10.4417216406      -30.6088591277        1.6875700931  MEMB      56              0.0000000000
      7485        62  POPC      H15R           -9.9492796317      -31.5949122636        1.5368133338  MEMB      56              0.0000000000
      7486        62  POPC      H15S           -9.6721571853      -29.8206430977        1.5346072189  MEMB      56              0.0000000000
      7487        62  POPC      C216          -11.5446825599      -30.3935896561        0.6445158025  MEMB      56              0.0000000000
      7488        62  POPC      H16R          -12.3815475519      -31.0822123899        0.8873680998  MEMB      56              0.0000000000
      7489        62  POPC      H16S          -11.1709901438      -30.6596434297       -0.3697840969  MEMB      56              0.0000000000
      7490        62  POPC      C217          -12.0618881911      -28.9458639777        0.6213053985  MEMB      56              0.0000000000
      7491        62  POPC      H17R          -11.5635264852      -28.4203458370       -0.2209576698  MEMB      56              0.0000000000
      7492        62  POPC      H17S          -11.7478505663      -28.4184019454        1.5492946821  MEMB      56              0.0000000000
      7493        62  POPC      C218          -13.5826243186      -28.8376790743        0.4968218020  MEMB      56              0.0000000000
      7494        62  POPC      H18R          -14.0791722031      -29.3577087875        1.3436052645  MEMB      56              0.0000000000
      7495        62  POPC      H18S          -13.9202924081      -29.3072919298       -0.4489972285  MEMB      56              0.0000000000
      7496        62  POPC      H18T          -13.9072293836      -27.7755426279        0.5001648091  MEMB      56              0.0000000000
      7497        62  POPC      C33           -12.7286956727      -36.7139206455       12.3793657690  MEMB      56              0.0000000000
      7498        62  POPC      H3X           -13.5937108291      -37.4130860021       12.4351185445  MEMB      56              0.0000000000
      7499        62  POPC      H3Y           -11.8208446874      -37.3207364085       12.1685629302  MEMB      56              0.0000000000
      7500        62  POPC      C34           -12.9950146701      -35.7470383584       11.2149031154  MEMB      56              0.0000000000
      7501        62  POPC      H4X           -12.1533990403      -35.0239539782       11.1288537782  MEMB      56              0.0000000000
      7502        62  POPC      H4Y           -13.9196438399      -35.1678388178       11.4262230822  MEMB      56              0.0000000000
      7503        62  POPC      C35           -13.1438534745      -36.4826694107        9.8800572063  MEMB      56              0.0000000000
      7504        62  POPC      H5X           -14.1341707343      -36.9799568213        9.8472504941  MEMB      56              0.0000000000
      7505        62  POPC      H5Y           -12.3495882605      -37.2596688978        9.8064503293  MEMB      56              0.0000000000
      7506        62  POPC      C36           -13.0594355926      -35.5695411260        8.6603193041  MEMB      56              0.0000000000
      7507        62  POPC      H6X           -12.1439304732      -34.9396462344        8.7256768419  MEMB      56              0.0000000000
      7508        62  POPC      H6Y           -13.9386993270      -34.8906359881        8.6604150899  MEMB      56              0.0000000000
      7509        62  POPC      C37           -13.0420120635      -36.3473994089        7.3379972490  MEMB      56              0.0000000000
      7510        62  POPC      H7X           -13.9520898576      -36.9799372221        7.2505813663  MEMB      56              0.0000000000
      7511        62  POPC      H7Y           -12.1503394582      -37.0131382432        7.3178063747  MEMB      56              0.0000000000
      7512        62  POPC      C38           -12.9879248813      -35.3787831619        6.1596299944  MEMB      56              0.0000000000
      7513        62  POPC      H8X           -12.1928218664      -34.6354550571        6.3956117428  MEMB      56              0.0000000000
      7514        62  POPC      H8Y           -13.9515872497      -34.8332398645        6.0895328091  MEMB      56              0.0000000000
      7515        62  POPC      C39           -12.6517986789      -36.0227105371        4.8116140199  MEMB      56              0.0000000000
      7516        62  POPC      H9X           -12.0751313886      -36.9601871745        4.9616955166  MEMB      56              0.0000000000
      7517        62  POPC      H9Y           -11.9900626548      -35.2985533627        4.2809208826  MEMB      56              0.0000000000
      7518        62  POPC      C310          -13.8814392387      -36.2816703943        3.9266977633  MEMB      56              0.0000000000
      7519        62  POPC      H10X          -14.4073467103      -35.3152790979        3.7677272362  MEMB      56              0.0000000000
      7520        62  POPC      H10Y          -14.5922800947      -36.9525702925        4.4585457431  MEMB      56              0.0000000000
      7521        62  POPC      C311          -13.5379757799      -36.8893011397        2.5526346761  MEMB      56              0.0000000000
      7522        62  POPC      H11X          -14.3704304316      -36.6940382597        1.8407217005  MEMB      56              0.0000000000
      7523        62  POPC      H11Y          -13.4652136139      -37.9904797505        2.6818617382  MEMB      56              0.0000000000
      7524        62  POPC      C312          -12.2096708893      -36.3893860989        1.9520859548  MEMB      56              0.0000000000
      7525        62  POPC      H12X          -11.3868631592      -36.7765446234        2.5977988173  MEMB      56              0.0000000000
      7526        62  POPC      H12Y          -12.1511423668      -35.2822586492        1.9747481374  MEMB      56              0.0000000000
      7527        62  POPC      C313          -11.9424075277      -36.8871239005        0.5266210575  MEMB      56              0.0000000000
      7528        62  POPC      H13X          -12.3400989309      -37.9169763413        0.4355657643  MEMB      56              0.0000000000
      7529        62  POPC      H13Y          -10.8387919580      -36.9351399198        0.3718383046  MEMB      56              0.0000000000
      7530        62  POPC      C314          -12.5314259337      -36.0150607958       -0.5911219759  MEMB      56              0.0000000000
      7531        62  POPC      H14X          -12.0805133870      -35.0003927177       -0.5150200968  MEMB      56              0.0000000000
      7532        62  POPC      H14Y          -13.6306203793      -35.9103740826       -0.4631226856  MEMB      56              0.0000000000
      7533        62  POPC      C315          -12.2260395906      -36.6093261437       -1.9750924084  MEMB      56              0.0000000000
      7534        62  POPC      H15X          -11.4423983894      -37.3828538312       -1.8319383135  MEMB      56              0.0000000000
      7535        62  POPC      H15Y          -11.7959394739      -35.8285820695       -2.6390187670  MEMB      56              0.0000000000
      7536        62  POPC      C316          -13.4226756539      -37.2613959799       -2.6685634895  MEMB      56              0.0000000000
      7537        62  POPC      H16X          -14.1327401158      -36.4977609166       -3.0407583181  MEMB      56              0.0000000000
      7538        62  POPC      H16Y          -13.9614349440      -37.9257736890       -1.9592016236  MEMB      56              0.0000000000
      7539        62  POPC      H16Z          -13.0911534521      -37.8713413390       -3.5359553647  MEMB      56              0.0000000000
      7540        63  POPC      N             -33.2498364165       15.6878529076       19.4254259113  MEMB      57              0.0000000000
      7541        63  POPC      C12           -33.6000540586       14.3428374102       18.8105396425  MEMB      57              0.0000000000
      7542        63  POPC      H12A          -32.8607792660       14.0973005541       18.0465749930  MEMB      57              0.0000000000
      7543        63  POPC      H12B          -34.5539679644       14.4028761319       18.3191982791  MEMB      57              0.0000000000
      7544        63  POPC      C13           -31.8421612157       15.5618990035       19.9295864163  MEMB      57              0.0000000000
      7545        63  POPC      H13A          -31.1470513172       15.4640399083       19.0964346980  MEMB      57              0.0000000000
      7546        63  POPC      H13B          -31.4862606028       16.4062794859       20.5001121581  MEMB      57              0.0000000000
      7547        63  POPC      H13C          -31.7310806333       14.6526520919       20.5197939361  MEMB      57              0.0000000000
      7548        63  POPC      C14           -33.2842178800       16.7673680649       18.3886096196  MEMB      57              0.0000000000
      7549        63  POPC      H14A          -32.7387553537       17.6428218836       18.7300174868  MEMB      57              0.0000000000
      7550        63  POPC      H14B          -32.7592243732       16.4550417685       17.4855040560  MEMB      57              0.0000000000
      7551        63  POPC      H14C          -34.2958742271       17.0439804761       18.1193878599  MEMB      57              0.0000000000
      7552        63  POPC      C15           -34.2057004609       16.0065797167       20.5319303593  MEMB      57              0.0000000000
      7553        63  POPC      H15A          -35.1876374404       16.2932065900       20.1580326667  MEMB      57              0.0000000000
      7554        63  POPC      H15B          -33.8434349806       16.8005445143       21.1611848507  MEMB      57              0.0000000000
      7555        63  POPC      H15C          -34.3414523991       15.1312873756       21.1727979370  MEMB      57              0.0000000000
      7556        63  POPC      C11           -33.5784589534       13.1238640205       19.7588920460  MEMB      57              0.0000000000
      7557        63  POPC      H11A          -34.1696272146       12.3003136605       19.2812566674  MEMB      57              0.0000000000
      7558        63  POPC      H11B          -34.0910423718       13.3559294391       20.7170626024  MEMB      57              0.0000000000
      7559        63  POPC      P             -31.5466461680       11.6287693433       19.1642994317  MEMB      57              0.0000000000
      7560        63  POPC      O13           -32.3705055312       10.4191004345       19.4004542210  MEMB      57              0.0000000000
      7561        63  POPC      O14           -30.0930609506       11.5793639713       19.3780809491  MEMB      57              0.0000000000
      7562        63  POPC      O12           -32.2201869610       12.7536638881       20.0341184105  MEMB      57              0.0000000000
      7563        63  POPC      O11           -31.8467806687       12.1349829920       17.7023661099  MEMB      57              0.0000000000
      7564        63  POPC      C1            -30.8413927299       12.8549285335       16.9896335040  MEMB      57              0.0000000000
      7565        63  POPC      HA            -29.8431126960       12.3614883783       17.0668331654  MEMB      57              0.0000000000
      7566        63  POPC      HB            -30.7337799343       13.8780683691       17.4064666180  MEMB      57              0.0000000000
      7567        63  POPC      C2            -31.1910686039       12.9193581221       15.4787870097  MEMB      57              0.0000000000
      7568        63  POPC      HS            -30.4532573608       13.5830728378       14.9749998151  MEMB      57              0.0000000000
      7569        63  POPC      O21           -32.5197475404       13.3995767372       15.2183399100  MEMB      57              0.0000000000
      7570        63  POPC      C21           -32.7797647952       14.6208568348       15.5841648240  MEMB      57              0.0000000000
      7571        63  POPC      O22           -31.9988093454       15.4085591033       16.0894823562  MEMB      57              0.0000000000
      7572        63  POPC      C22           -34.2728512708       14.8823710223       15.3480717462  MEMB      57              0.0000000000
      7573        63  POPC      H2R           -34.5851326799       15.6763420354       16.0559263479  MEMB      57              0.0000000000
      7574        63  POPC      H2S           -34.8371582425       13.9579441553       15.5924225540  MEMB      57              0.0000000000
      7575        63  POPC      C3            -31.0711052773       11.5168447146       14.8278418362  MEMB      57              0.0000000000
      7576        63  POPC      HX            -31.5854360920       10.7882769137       15.4933514416  MEMB      57              0.0000000000
      7577        63  POPC      HY            -30.0099059226       11.2141412264       14.7701602664  MEMB      57              0.0000000000
      7578        63  POPC      O31           -31.7100910676       11.4866518180       13.5415541862  MEMB      57              0.0000000000
      7579        63  POPC      C31           -31.1129391993       12.1975307567       12.6014756521  MEMB      57              0.0000000000
      7580        63  POPC      O32           -29.9618052413       12.5964552286       12.6192184201  MEMB      57              0.0000000000
      7581        63  POPC      C32           -32.1333139634       12.5175451985       11.5122618238  MEMB      57              0.0000000000
      7582        63  POPC      H2X           -32.4669790023       13.5653365788       11.6726012251  MEMB      57              0.0000000000
      7583        63  POPC      H2Y           -33.0142376726       11.8583499195       11.6456506198  MEMB      57              0.0000000000
      7584        63  POPC      C23           -34.6098252885       15.3332960578       13.9026086474  MEMB      57              0.0000000000
      7585        63  POPC      H3R           -35.2941952169       14.5916776093       13.4346237729  MEMB      57              0.0000000000
      7586        63  POPC      H3S           -33.6965590973       15.3752666914       13.2675133340  MEMB      57              0.0000000000
      7587        63  POPC      C24           -35.2809986244       16.7118882943       13.8913973541  MEMB      57              0.0000000000
      7588        63  POPC      H4R           -34.5919905814       17.4676207662       14.3321256675  MEMB      57              0.0000000000
      7589        63  POPC      H4S           -36.1862402587       16.6585962259       14.5425905518  MEMB      57              0.0000000000
      7590        63  POPC      C25           -35.7354007983       17.1869501420       12.5022707571  MEMB      57              0.0000000000
      7591        63  POPC      H5R           -36.3852947068       18.0796976469       12.6705916527  MEMB      57              0.0000000000
      7592        63  POPC      H5S           -36.3586596498       16.4093383666       12.0118218060  MEMB      57              0.0000000000
      7593        63  POPC      C26           -34.6302760884       17.6359307384       11.5365325291  MEMB      57              0.0000000000
      7594        63  POPC      H6R           -33.7712877154       18.0587689863       12.1003791160  MEMB      57              0.0000000000
      7595        63  POPC      H6S           -35.0610308789       18.4579805009       10.9166759344  MEMB      57              0.0000000000
      7596        63  POPC      C27           -34.1639935259       16.5459024331       10.5577880040  MEMB      57              0.0000000000
      7597        63  POPC      H7R           -35.0632323206       15.9869113913       10.2062137258  MEMB      57              0.0000000000
      7598        63  POPC      H7S           -33.4880960028       15.8316251594       11.0766295240  MEMB      57              0.0000000000
      7599        63  POPC      C28           -33.4739992331       17.1310485621        9.3094451458  MEMB      57              0.0000000000
      7600        63  POPC      H8R           -34.1809073753       17.8310182671        8.8136271044  MEMB      57              0.0000000000
      7601        63  POPC      H8S           -33.2966830513       16.3026521169        8.5887943395  MEMB      57              0.0000000000
      7602        63  POPC      C29           -32.2001936101       17.8651616493        9.6463205603  MEMB      57              0.0000000000
      7603        63  POPC      H91           -32.3294272085       18.7709885680       10.2633833122  MEMB      57              0.0000000000
      7604        63  POPC      C210          -30.9558606603       17.4946956536        9.2990933161  MEMB      57              0.0000000000
      7605        63  POPC      H101          -30.1106333783       18.1249258823        9.6220058921  MEMB      57              0.0000000000
      7606        63  POPC      C211          -30.5931154352       16.2651479507        8.5024158778  MEMB      57              0.0000000000
      7607        63  POPC      H11R          -31.3072932688       15.4334198592        8.6920895509  MEMB      57              0.0000000000
      7608        63  POPC      H11S          -29.5935211239       15.8977416776        8.8207477379  MEMB      57              0.0000000000
      7609        63  POPC      C212          -30.5752559690       16.5524466797        6.9897039331  MEMB      57              0.0000000000
      7610        63  POPC      H12R          -29.8506857623       17.3771225871        6.7956802902  MEMB      57              0.0000000000
      7611        63  POPC      H12S          -31.5674986756       16.9222177672        6.6564898249  MEMB      57              0.0000000000
      7612        63  POPC      C213          -30.1452416535       15.3359689636        6.1449045250  MEMB      57              0.0000000000
      7613        63  POPC      H13R          -29.4243867321       14.7210662937        6.7276872870  MEMB      57              0.0000000000
      7614        63  POPC      H13S          -29.5929987089       15.7106775312        5.2537223875  MEMB      57              0.0000000000
      7615        63  POPC      C214          -31.2953325475       14.4425692096        5.6458848258  MEMB      57              0.0000000000
      7616        63  POPC      H14R          -31.7976968667       13.9778595708        6.5178824340  MEMB      57              0.0000000000
      7617        63  POPC      H14S          -30.8608306387       13.6232271083        5.0281433336  MEMB      57              0.0000000000
      7618        63  POPC      C215          -32.3652571780       15.1644981713        4.8112486253  MEMB      57              0.0000000000
      7619        63  POPC      H15R          -32.9654206624       15.8156202371        5.4832687371  MEMB      57              0.0000000000
      7620        63  POPC      H15S          -33.0655230777       14.4057881563        4.3934735756  MEMB      57              0.0000000000
      7621        63  POPC      C216          -31.7868559766       15.9991709313        3.6596417426  MEMB      57              0.0000000000
      7622        63  POPC      H16R          -31.2276727797       15.3145684635        2.9863503143  MEMB      57              0.0000000000
      7623        63  POPC      H16S          -31.0648933388       16.7531412909        4.0446848004  MEMB      57              0.0000000000
      7624        63  POPC      C217          -32.8661069824       16.7467910832        2.8703323721  MEMB      57              0.0000000000
      7625        63  POPC      H17R          -33.6888625227       16.0359118697        2.6315815459  MEMB      57              0.0000000000
      7626        63  POPC      H17S          -32.4322885410       17.0881531973        1.9031076090  MEMB      57              0.0000000000
      7627        63  POPC      C218          -33.4241328844       17.9536652250        3.6279156062  MEMB      57              0.0000000000
      7628        63  POPC      H18R          -32.6268524964       18.6976408054        3.8313377479  MEMB      57              0.0000000000
      7629        63  POPC      H18S          -33.8352178576       17.6335268168        4.6068030566  MEMB      57              0.0000000000
      7630        63  POPC      H18T          -34.2317447851       18.4487995872        3.0467235177  MEMB      57              0.0000000000
      7631        63  POPC      C33           -31.5425371949       12.3690336386       10.0939378988  MEMB      57              0.0000000000
      7632        63  POPC      H3X           -31.0470001984       11.3822688019        9.9740310111  MEMB      57              0.0000000000
      7633        63  POPC      H3Y           -30.7618306374       13.1515486796        9.9478667221  MEMB      57              0.0000000000
      7634        63  POPC      C34           -32.6126340324       12.5253076743        9.0056839138  MEMB      57              0.0000000000
      7635        63  POPC      H4X           -32.1113846264       12.6407456621        8.0220823166  MEMB      57              0.0000000000
      7636        63  POPC      H4Y           -33.1764092415       13.4637194817        9.2134163426  MEMB      57              0.0000000000
      7637        63  POPC      C35           -33.5858356525       11.3390007308        8.9040993509  MEMB      57              0.0000000000
      7638        63  POPC      H5X           -33.6102746150       10.7880217913        9.8709465530  MEMB      57              0.0000000000
      7639        63  POPC      H5Y           -33.2210278169       10.6231547097        8.1383603869  MEMB      57              0.0000000000
      7640        63  POPC      C36           -35.0256774311       11.7738343116        8.5833690411  MEMB      57              0.0000000000
      7641        63  POPC      H6X           -35.3238538119       12.5167182573        9.3509052042  MEMB      57              0.0000000000
      7642        63  POPC      H6Y           -35.6968407954       10.8893924202        8.6776592454  MEMB      57              0.0000000000
      7643        63  POPC      C37           -35.2399636282       12.4155840460        7.2046687293  MEMB      57              0.0000000000
      7644        63  POPC      H7X           -34.5606814588       13.2900652314        7.0866060150  MEMB      57              0.0000000000
      7645        63  POPC      H7Y           -36.2850777879       12.7965906140        7.1440235020  MEMB      57              0.0000000000
      7646        63  POPC      C38           -35.0162489533       11.4320556711        6.0549703333  MEMB      57              0.0000000000
      7647        63  POPC      H8X           -35.6121640741       10.5062671714        6.2177410497  MEMB      57              0.0000000000
      7648        63  POPC      H8Y           -33.9441935312       11.1460387305        6.0593494312  MEMB      57              0.0000000000
      7649        63  POPC      C39           -35.3569220782       12.0319229727        4.6876937294  MEMB      57              0.0000000000
      7650        63  POPC      H9X           -35.0033725752       13.0883848697        4.6652858915  MEMB      57              0.0000000000
      7651        63  POPC      H9Y           -36.4594114241       12.0313337181        4.5416933437  MEMB      57              0.0000000000
      7652        63  POPC      C310          -34.6629790936       11.2771949580        3.5510529811  MEMB      57              0.0000000000
      7653        63  POPC      H10X          -34.9561141673       10.2033454991        3.5834199666  MEMB      57              0.0000000000
      7654        63  POPC      H10Y          -33.5665416315       11.3423934443        3.7362524548  MEMB      57              0.0000000000
      7655        63  POPC      C311          -34.9647258784       11.8476345196        2.1595667380  MEMB      57              0.0000000000
      7656        63  POPC      H11X          -34.8234887392       12.9498586340        2.1685651991  MEMB      57              0.0000000000
      7657        63  POPC      H11Y          -36.0362849211       11.6522713231        1.9260661373  MEMB      57              0.0000000000
      7658        63  POPC      C312          -34.0881588805       11.2300396004        1.0572676416  MEMB      57              0.0000000000
      7659        63  POPC      H12X          -34.4915304582       11.5342304630        0.0653520047  MEMB      57              0.0000000000
      7660        63  POPC      H12Y          -34.1736235673       10.1271252141        1.1260839846  MEMB      57              0.0000000000
      7661        63  POPC      C313          -32.5946696597       11.6062086017        1.1072514175  MEMB      57              0.0000000000
      7662        63  POPC      H13X          -32.0938974201       11.0846803517        0.2650000433  MEMB      57              0.0000000000
      7663        63  POPC      H13Y          -32.1323580526       11.2302101530        2.0451866719  MEMB      57              0.0000000000
      7664        63  POPC      C314          -32.3620864166       13.1207272005        1.0055919088  MEMB      57              0.0000000000
      7665        63  POPC      H14X          -32.6491539131       13.5860615273        1.9748514972  MEMB      57              0.0000000000
      7666        63  POPC      H14Y          -33.0432153619       13.5072785662        0.2177812414  MEMB      57              0.0000000000
      7667        63  POPC      C315          -30.9420650586       13.5815887573        0.6395051775  MEMB      57              0.0000000000
      7668        63  POPC      H15X          -30.8102539393       14.6285756254        0.9901667490  MEMB      57              0.0000000000
      7669        63  POPC      H15Y          -30.8428092604       13.6310456291       -0.4613734117  MEMB      57              0.0000000000
      7670        63  POPC      C316          -29.8117581261       12.7140299348        1.1746951539  MEMB      57              0.0000000000
      7671        63  POPC      H16X          -29.8225576339       12.6911086269        2.2851472372  MEMB      57              0.0000000000
      7672        63  POPC      H16Y          -28.8271813140       13.0942067840        0.8319597563  MEMB      57              0.0000000000
      7673        63  POPC      H16Z          -29.9121188084       11.6786282575        0.7864221413  MEMB      57              0.0000000000
      7674        64  POPS      N              30.7877295260      -24.0581745577       18.0808374761  MEMB      58              0.0000000000
      7675        64  POPS      HN1            30.3665693177      -24.5841228939       17.2914371665  MEMB      58              0.0000000000
      7676        64  POPS      HN2            31.2327036836      -23.1944713556       17.7310052518  MEMB      58              0.0000000000
      7677        64  POPS      HN3            31.5128793346      -24.6140609424       18.6039311530  MEMB      58              0.0000000000
      7678        64  POPS      C12            29.7450524570      -23.7952484613       19.1248325165  MEMB      58              0.0000000000
      7679        64  POPS      H12A           29.2063488001      -22.8862324826       18.9042007245  MEMB      58              0.0000000000
      7680        64  POPS      C13            30.5094983784      -23.6713590004       20.4594659544  MEMB      58              0.0000000000
      7681        64  POPS      O13A           31.4683694398      -24.4715267626       20.6267219813  MEMB      58              0.0000000000
      7682        64  POPS      O13B           30.2331536550      -22.7536122291       21.2748310522  MEMB      58              0.0000000000
      7683        64  POPS      C11            28.8058453831      -25.0501181005       19.1088842277  MEMB      58              0.0000000000
      7684        64  POPS      H11A           29.3419048556      -25.9269989530       19.5352917162  MEMB      58              0.0000000000
      7685        64  POPS      H11B           28.6205137712      -25.2690662747       18.0362542223  MEMB      58              0.0000000000
      7686        64  POPS      P              26.1699478555      -25.3289716801       19.2780764544  MEMB      58              0.0000000000
      7687        64  POPS      O13            25.4180515572      -24.1104421682       18.9250379083  MEMB      58              0.0000000000
      7688        64  POPS      O14            25.5877387136      -26.2652247930       20.2687137677  MEMB      58              0.0000000000
      7689        64  POPS      O12            27.5786514084      -24.8560768355       19.8109629086  MEMB      58              0.0000000000
      7690        64  POPS      O11            26.5262938025      -26.1067317479       17.9424289317  MEMB      58              0.0000000000
      7691        64  POPS      C1             25.8544377222      -25.7999535285       16.7106150183  MEMB      58              0.0000000000
      7692        64  POPS      HA             24.9109297012      -25.2201472653       16.8351773668  MEMB      58              0.0000000000
      7693        64  POPS      HB             25.5314026704      -26.7535600854       16.2517171330  MEMB      58              0.0000000000
      7694        64  POPS      C2             26.7609429661      -25.1026106784       15.6445440169  MEMB      58              0.0000000000
      7695        64  POPS      HS             26.3527990303      -25.3646891398       14.6391105272  MEMB      58              0.0000000000
      7696        64  POPS      O21            28.1377875692      -25.5134871715       15.7467390548  MEMB      58              0.0000000000
      7697        64  POPS      C21            28.3484410293      -26.7955423216       15.4856303452  MEMB      58              0.0000000000
      7698        64  POPS      O22            27.5382661198      -27.5600857729       14.9930495566  MEMB      58              0.0000000000
      7699        64  POPS      C22            29.7489512188      -27.1416870337       16.0345177673  MEMB      58              0.0000000000
      7700        64  POPS      H2R            29.6618568476      -28.1007491227       16.5795184316  MEMB      58              0.0000000000
      7701        64  POPS      H2S            30.0291929877      -26.3824481107       16.7835114230  MEMB      58              0.0000000000
      7702        64  POPS      C3             26.7024055444      -23.5528653351       15.7412080930  MEMB      58              0.0000000000
      7703        64  POPS      HX             27.2338582250      -23.2085200497       16.6568461539  MEMB      58              0.0000000000
      7704        64  POPS      HY             25.6352325176      -23.2591809347       15.8626066778  MEMB      58              0.0000000000
      7705        64  POPS      O31            27.2042648090      -22.9513125924       14.5264555557  MEMB      58              0.0000000000
      7706        64  POPS      C31            28.5181670500      -22.8017005038       14.4455378576  MEMB      58              0.0000000000
      7707        64  POPS      O32            29.3191612138      -22.9426378566       15.3604640241  MEMB      58              0.0000000000
      7708        64  POPS      C32            28.9137091524      -22.4981914309       13.0068255491  MEMB      58              0.0000000000
      7709        64  POPS      H2X            28.3368761987      -23.1653767401       12.3327516788  MEMB      58              0.0000000000
      7710        64  POPS      H2Y            29.9917021167      -22.7576195486       12.9311518069  MEMB      58              0.0000000000
      7711        64  POPS      C23            30.8961852273      -27.2422859257       14.9933624155  MEMB      58              0.0000000000
      7712        64  POPS      H3R            30.8710109613      -28.2370570093       14.4986647034  MEMB      58              0.0000000000
      7713        64  POPS      H3S            31.8691360509      -27.1992070302       15.5359041266  MEMB      58              0.0000000000
      7714        64  POPS      C24            30.8821417046      -26.1514502286       13.9137587500  MEMB      58              0.0000000000
      7715        64  POPS      H4R            30.9690720268      -25.1507828065       14.3906659045  MEMB      58              0.0000000000
      7716        64  POPS      H4S            29.9087232700      -26.1995131347       13.3755261654  MEMB      58              0.0000000000
      7717        64  POPS      C25            32.0130105545      -26.3138258305       12.8812283575  MEMB      58              0.0000000000
      7718        64  POPS      H5R            31.8453890865      -27.2530463542       12.3091288229  MEMB      58              0.0000000000
      7719        64  POPS      H5S            32.9765312549      -26.4317192889       13.4254229099  MEMB      58              0.0000000000
      7720        64  POPS      C26            32.1513597573      -25.1217881792       11.9090597318  MEMB      58              0.0000000000
      7721        64  POPS      H6R            32.9660766658      -25.3460644186       11.1852134951  MEMB      58              0.0000000000
      7722        64  POPS      H6S            32.4726520927      -24.2310140281       12.4979160839  MEMB      58              0.0000000000
      7723        64  POPS      C27            30.8632257325      -24.7594292379       11.1452068106  MEMB      58              0.0000000000
      7724        64  POPS      H7R            30.9893494696      -23.7704385287       10.6469852745  MEMB      58              0.0000000000
      7725        64  POPS      H7S            30.0421269268      -24.6432686487       11.8834247754  MEMB      58              0.0000000000
      7726        64  POPS      C28            30.4007090796      -25.8171482820       10.1307456306  MEMB      58              0.0000000000
      7727        64  POPS      H8R            29.3226525663      -25.6323337116        9.9198283385  MEMB      58              0.0000000000
      7728        64  POPS      H8S            30.4625894231      -26.8286745309       10.5866249170  MEMB      58              0.0000000000
      7729        64  POPS      C29            31.2368791201      -25.7435692356        8.8809452589  MEMB      58              0.0000000000
      7730        64  POPS      H91            32.3273114151      -25.7310140818        9.0372217807  MEMB      58              0.0000000000
      7731        64  POPS      C210           30.7607861790      -25.6825155070        7.6294842502  MEMB      58              0.0000000000
      7732        64  POPS      H101           31.4814210247      -25.6159474651        6.8006464933  MEMB      58              0.0000000000
      7733        64  POPS      C211           29.2990188489      -25.6793046935        7.2540209659  MEMB      58              0.0000000000
      7734        64  POPS      H11R           28.7152317238      -25.0289531390        7.9463645853  MEMB      58              0.0000000000
      7735        64  POPS      H11S           28.8594690752      -26.6941201680        7.3530386968  MEMB      58              0.0000000000
      7736        64  POPS      C212           29.0371515416      -25.1480597075        5.8333423722  MEMB      58              0.0000000000
      7737        64  POPS      H12R           29.2313555724      -24.0561308294        5.8742675057  MEMB      58              0.0000000000
      7738        64  POPS      H12S           27.9561709874      -25.2755233587        5.6020059990  MEMB      58              0.0000000000
      7739        64  POPS      C213           29.8254503836      -25.7973365661        4.6784958642  MEMB      58              0.0000000000
      7740        64  POPS      H13R           29.4782865006      -26.8470509523        4.5548664503  MEMB      58              0.0000000000
      7741        64  POPS      H13S           30.9169651501      -25.8156598593        4.8761487990  MEMB      58              0.0000000000
      7742        64  POPS      C214           29.6009631556      -25.0570619599        3.3564113326  MEMB      58              0.0000000000
      7743        64  POPS      H14R           28.5012139353      -24.9909104840        3.2076414586  MEMB      58              0.0000000000
      7744        64  POPS      H14S           30.0200452976      -25.6411377444        2.5068140243  MEMB      58              0.0000000000
      7745        64  POPS      C215           30.2189128838      -23.6547200260        3.3502514431  MEMB      58              0.0000000000
      7746        64  POPS      H15R           31.3125156602      -23.7362034212        3.1674120799  MEMB      58              0.0000000000
      7747        64  POPS      H15S           30.1164517229      -23.1657846616        4.3402988509  MEMB      58              0.0000000000
      7748        64  POPS      C216           29.5932062916      -22.7055146077        2.3267861555  MEMB      58              0.0000000000
      7749        64  POPS      H16R           29.8247840683      -23.0438607145        1.2943617007  MEMB      58              0.0000000000
      7750        64  POPS      H16S           30.0748995509      -21.7170661546        2.4895334831  MEMB      58              0.0000000000
      7751        64  POPS      C217           28.0776727396      -22.5013077766        2.4361634202  MEMB      58              0.0000000000
      7752        64  POPS      H17R           27.5555380029      -23.4259266924        2.1048564865  MEMB      58              0.0000000000
      7753        64  POPS      H17S           27.8103746157      -21.6993820220        1.7141248744  MEMB      58              0.0000000000
      7754        64  POPS      C218           27.5817513281      -22.1107780280        3.8302155367  MEMB      58              0.0000000000
      7755        64  POPS      H18R           26.4896708747      -21.9079296941        3.8184172558  MEMB      58              0.0000000000
      7756        64  POPS      H18S           28.1076832874      -21.1994469780        4.1870261171  MEMB      58              0.0000000000
      7757        64  POPS      H18T           27.7632876731      -22.9273914134        4.5585905953  MEMB      58              0.0000000000
      7758        64  POPS      C33            28.7340496676      -21.0261021880       12.5842261372  MEMB      58              0.0000000000
      7759        64  POPS      H3X            29.2017452404      -20.3667139921       13.3529543631  MEMB      58              0.0000000000
      7760        64  POPS      H3Y            27.6574112870      -20.7579223078       12.5163309183  MEMB      58              0.0000000000
      7761        64  POPS      C34            29.4524514831      -20.7592324838       11.2542493876  MEMB      58              0.0000000000
      7762        64  POPS      H4X            30.4454115892      -21.2571816327       11.3039605730  MEMB      58              0.0000000000
      7763        64  POPS      H4Y            29.6276489525      -19.6661892331       11.1458562525  MEMB      58              0.0000000000
      7764        64  POPS      C35            28.7247026000      -21.2646022233       10.0003136272  MEMB      58              0.0000000000
      7765        64  POPS      H5X            28.5599912591      -22.3629990114       10.0599035197  MEMB      58              0.0000000000
      7766        64  POPS      H5Y            29.3918285398      -21.0807124675        9.1257547312  MEMB      58              0.0000000000
      7767        64  POPS      C36            27.3863875117      -20.5559993483        9.7530068580  MEMB      58              0.0000000000
      7768        64  POPS      H6X            27.3634123044      -19.6458008502       10.3834872473  MEMB      58              0.0000000000
      7769        64  POPS      H6Y            26.5489966235      -21.1936119298       10.1055421352  MEMB      58              0.0000000000
      7770        64  POPS      C37            27.1912663885      -20.1245696198        8.2906158086  MEMB      58              0.0000000000
      7771        64  POPS      H7X            28.1384035330      -19.6859424686        7.9048447511  MEMB      58              0.0000000000
      7772        64  POPS      H7Y            26.4102138910      -19.3324402229        8.2299499197  MEMB      58              0.0000000000
      7773        64  POPS      C38            26.7644969955      -21.2888451485        7.3924285535  MEMB      58              0.0000000000
      7774        64  POPS      H8X            27.4259418328      -22.1575771960        7.6043541172  MEMB      58              0.0000000000
      7775        64  POPS      H8Y            26.9084214156      -21.0073901388        6.3261066963  MEMB      58              0.0000000000
      7776        64  POPS      C39            25.2881062137      -21.6478989771        7.6054321470  MEMB      58              0.0000000000
      7777        64  POPS      H9X            24.6608245374      -20.8046589866        7.2531709260  MEMB      58              0.0000000000
      7778        64  POPS      H9Y            25.0878531685      -21.7839903516        8.6912166004  MEMB      58              0.0000000000
      7779        64  POPS      C310           24.8417033794      -22.9167663656        6.8812310685  MEMB      58              0.0000000000
      7780        64  POPS      H10X           24.8887487117      -22.7634874533        5.7792873640  MEMB      58              0.0000000000
      7781        64  POPS      H10Y           23.7817136183      -23.1032397064        7.1554971689  MEMB      58              0.0000000000
      7782        64  POPS      C311           25.6935899141      -24.1266552547        7.2662745383  MEMB      58              0.0000000000
      7783        64  POPS      H11X           25.9297291612      -24.0761437730        8.3549570496  MEMB      58              0.0000000000
      7784        64  POPS      H11Y           26.6554877273      -24.0614900536        6.7173174858  MEMB      58              0.0000000000
      7785        64  POPS      C312           25.0323541166      -25.4817708426        6.9960991699  MEMB      58              0.0000000000
      7786        64  POPS      H12X           24.2653010393      -25.6602639975        7.7835701423  MEMB      58              0.0000000000
      7787        64  POPS      H12Y           25.8139289504      -26.2577165790        7.1092184335  MEMB      58              0.0000000000
      7788        64  POPS      C313           24.3548210647      -25.6376745680        5.6274011090  MEMB      58              0.0000000000
      7789        64  POPS      H13X           23.6123830116      -24.8257334603        5.4898828975  MEMB      58              0.0000000000
      7790        64  POPS      H13Y           23.7916719384      -26.5963338312        5.6280415358  MEMB      58              0.0000000000
      7791        64  POPS      C314           25.3106361496      -25.6265754163        4.4290711666  MEMB      58              0.0000000000
      7792        64  POPS      H14X           26.0719542914      -26.4284279274        4.5438505854  MEMB      58              0.0000000000
      7793        64  POPS      H14Y           25.8450168047      -24.6500461135        4.4126906453  MEMB      58              0.0000000000
      7794        64  POPS      C315           24.5697767053      -25.8028869616        3.0946249526  MEMB      58              0.0000000000
      7795        64  POPS      H15X           25.2528495475      -25.5054985326        2.2706832106  MEMB      58              0.0000000000
      7796        64  POPS      H15Y           23.7127418299      -25.0944369839        3.0654880984  MEMB      58              0.0000000000
      7797        64  POPS      C316           24.0735297681      -27.2282804978        2.8355828114  MEMB      58              0.0000000000
      7798        64  POPS      H16X           24.9166497191      -27.9498825619        2.8928214095  MEMB      58              0.0000000000
      7799        64  POPS      H16Y           23.6136339652      -27.3092376452        1.8276030920  MEMB      58              0.0000000000
      7800        64  POPS      H16Z           23.3122096819      -27.5228366965        3.5892620675  MEMB      58              0.0000000000
      7801        65  POPC      N             -32.6988804778      -18.5862085544       20.9805937638  MEMB      59              0.0000000000
      7802        65  POPC      C12           -32.2516158176      -19.8490117581       20.2600455137  MEMB      59              0.0000000000
      7803        65  POPC      H12A          -32.4361827065      -20.7169207845       20.8846289486  MEMB      59              0.0000000000
      7804        65  POPC      H12B          -31.1778702778      -19.8285289491       20.0851470089  MEMB      59              0.0000000000
      7805        65  POPC      C13           -34.1642409517      -18.5982068269       21.1882905621  MEMB      59              0.0000000000
      7806        65  POPC      H13A          -34.5146387278      -19.4991817153       21.6933920323  MEMB      59              0.0000000000
      7807        65  POPC      H13B          -34.4957241901      -17.7597483164       21.7911024018  MEMB      59              0.0000000000
      7808        65  POPC      H13C          -34.6495405421      -18.5488362801       20.2212867084  MEMB      59              0.0000000000
      7809        65  POPC      C14           -32.0395492828      -18.4126686888       22.2962234449  MEMB      59              0.0000000000
      7810        65  POPC      H14A          -30.9595891064      -18.4748828402       22.2008335853  MEMB      59              0.0000000000
      7811        65  POPC      H14B          -32.2885675965      -17.4266518605       22.6824742046  MEMB      59              0.0000000000
      7812        65  POPC      H14C          -32.3617530120      -19.1664325663       23.0127004042  MEMB      59              0.0000000000
      7813        65  POPC      C15           -32.3524400341      -17.3972281099       20.1260264090  MEMB      59              0.0000000000
      7814        65  POPC      H15A          -31.2836022684      -17.3203759555       19.9672659099  MEMB      59              0.0000000000
      7815        65  POPC      H15B          -32.7093606698      -16.4542262629       20.5056660788  MEMB      59              0.0000000000
      7816        65  POPC      H15C          -32.7469557499      -17.5461610866       19.1207375228  MEMB      59              0.0000000000
      7817        65  POPC      C11           -32.8781851914      -20.0733982826       18.8624921383  MEMB      59              0.0000000000
      7818        65  POPC      H11A          -33.9843266881      -20.0045370017       18.9318025244  MEMB      59              0.0000000000
      7819        65  POPC      H11B          -32.6485506169      -21.1173511088       18.5387788560  MEMB      59              0.0000000000
      7820        65  POPC      P             -31.0084679752      -19.3353440406       17.1699834879  MEMB      59              0.0000000000
      7821        65  POPC      O13           -30.2991113681      -20.4010502035       17.9177962690  MEMB      59              0.0000000000
      7822        65  POPC      O14           -30.2620963551      -18.0732320885       17.0083703263  MEMB      59              0.0000000000
      7823        65  POPC      O12           -32.4055054887      -19.1010126116       17.9213576332  MEMB      59              0.0000000000
      7824        65  POPC      O11           -31.4846457982      -19.9042243392       15.7890906985  MEMB      59              0.0000000000
      7825        65  POPC      C1            -32.2742084492      -21.0919884996       15.7657108401  MEMB      59              0.0000000000
      7826        65  POPC      HA            -33.2477577243      -20.9342061813       16.2808935829  MEMB      59              0.0000000000
      7827        65  POPC      HB            -31.7436622153      -21.9363976652       16.2651374078  MEMB      59              0.0000000000
      7828        65  POPC      C2            -32.5640163830      -21.4448854070       14.2947758847  MEMB      59              0.0000000000
      7829        65  POPC      HS            -33.0849500335      -22.4282383079       14.2350828185  MEMB      59              0.0000000000
      7830        65  POPC      O21           -31.3472178710      -21.4636239815       13.5264434269  MEMB      59              0.0000000000
      7831        65  POPC      C21           -30.5284556592      -22.4246641786       13.8911949557  MEMB      59              0.0000000000
      7832        65  POPC      O22           -30.8360130322      -23.4122941928       14.5381595937  MEMB      59              0.0000000000
      7833        65  POPC      C22           -29.1344310703      -22.1698668005       13.3347003244  MEMB      59              0.0000000000
      7834        65  POPC      H2R           -28.4302776738      -22.2463626693       14.1897898895  MEMB      59              0.0000000000
      7835        65  POPC      H2S           -29.0803610246      -21.1456860921       12.9131824593  MEMB      59              0.0000000000
      7836        65  POPC      C3            -33.5074408022      -20.3785445106       13.7017102140  MEMB      59              0.0000000000
      7837        65  POPC      HX            -33.0621193094      -19.3670060217       13.8665347247  MEMB      59              0.0000000000
      7838        65  POPC      HY            -34.4638541725      -20.4045702666       14.2654725114  MEMB      59              0.0000000000
      7839        65  POPC      O31           -33.7684992795      -20.6867301777       12.3244915570  MEMB      59              0.0000000000
      7840        65  POPC      C31           -32.9955368768      -20.0527015968       11.4564178983  MEMB      59              0.0000000000
      7841        65  POPC      O32           -32.2364195406      -19.1358564725       11.7017195352  MEMB      59              0.0000000000
      7842        65  POPC      C32           -33.2681735852      -20.6363597086       10.0705827079  MEMB      59              0.0000000000
      7843        65  POPC      H2X           -34.3656102425      -20.6311963359        9.9109409447  MEMB      59              0.0000000000
      7844        65  POPC      H2Y           -32.9100165495      -21.6844665213       10.0556242443  MEMB      59              0.0000000000
      7845        65  POPC      C23           -28.7879405971      -23.2286287374       12.2732657887  MEMB      59              0.0000000000
      7846        65  POPC      H3R           -29.0042296758      -24.2504681949       12.6659486814  MEMB      59              0.0000000000
      7847        65  POPC      H3S           -27.6950953212      -23.1828169654       12.0580056788  MEMB      59              0.0000000000
      7848        65  POPC      C24           -29.5450075641      -22.9938639343       10.9623895708  MEMB      59              0.0000000000
      7849        65  POPC      H4R           -29.2048381118      -22.0252631354       10.5276358574  MEMB      59              0.0000000000
      7850        65  POPC      H4S           -30.6399925035      -22.9150246421       11.1456166558  MEMB      59              0.0000000000
      7851        65  POPC      C25           -29.2829119342      -24.1208768373        9.9644171169  MEMB      59              0.0000000000
      7852        65  POPC      H5R           -29.8530356548      -25.0314313969       10.2551531217  MEMB      59              0.0000000000
      7853        65  POPC      H5S           -28.1976278317      -24.3751758655       10.0213793255  MEMB      59              0.0000000000
      7854        65  POPC      C26           -29.5898874066      -23.7349528372        8.5139273594  MEMB      59              0.0000000000
      7855        65  POPC      H6R           -29.0266617419      -24.4575662236        7.8832752374  MEMB      59              0.0000000000
      7856        65  POPC      H6S           -29.1835153933      -22.7238285367        8.2881802795  MEMB      59              0.0000000000
      7857        65  POPC      C27           -31.0797823519      -23.8051150611        8.1356435938  MEMB      59              0.0000000000
      7858        65  POPC      H7R           -31.6522961064      -23.1041926158        8.7813271158  MEMB      59              0.0000000000
      7859        65  POPC      H7S           -31.4541214295      -24.8321454190        8.3513783022  MEMB      59              0.0000000000
      7860        65  POPC      C28           -31.3589466920      -23.4609008415        6.6537752053  MEMB      59              0.0000000000
      7861        65  POPC      H8R           -31.0925531518      -22.3969220536        6.4638698941  MEMB      59              0.0000000000
      7862        65  POPC      H8S           -32.4486587541      -23.5759527440        6.4592940563  MEMB      59              0.0000000000
      7863        65  POPC      C29           -30.5571317938      -24.3749848447        5.7702325817  MEMB      59              0.0000000000
      7864        65  POPC      H91           -30.1601221992      -25.2598135353        6.2874847436  MEMB      59              0.0000000000
      7865        65  POPC      C210          -30.2304822667      -24.2291980417        4.4814428239  MEMB      59              0.0000000000
      7866        65  POPC      H101          -29.5480355535      -24.9698109493        4.0403418996  MEMB      59              0.0000000000
      7867        65  POPC      C211          -30.5714382041      -23.1171806980        3.5469632979  MEMB      59              0.0000000000
      7868        65  POPC      H11R          -29.9599915096      -22.2296453849        3.8212930393  MEMB      59              0.0000000000
      7869        65  POPC      H11S          -31.6441000270      -22.8380008956        3.6383888608  MEMB      59              0.0000000000
      7870        65  POPC      C212          -30.2798913130      -23.4851235358        2.0764024667  MEMB      59              0.0000000000
      7871        65  POPC      H12R          -31.2481188797      -23.6382149345        1.5596174429  MEMB      59              0.0000000000
      7872        65  POPC      H12S          -29.7167412897      -24.4386550542        1.9643240620  MEMB      59              0.0000000000
      7873        65  POPC      C213          -29.4926850148      -22.3944006174        1.3448681108  MEMB      59              0.0000000000
      7874        65  POPC      H13R          -28.4044890918      -22.6045736203        1.4428583159  MEMB      59              0.0000000000
      7875        65  POPC      H13S          -29.6750162846      -21.4094306269        1.8273748659  MEMB      59              0.0000000000
      7876        65  POPC      C214          -29.8704944364      -22.2470662127       -0.1334382312  MEMB      59              0.0000000000
      7877        65  POPC      H14R          -30.9228934953      -21.8936265859       -0.2027170017  MEMB      59              0.0000000000
      7878        65  POPC      H14S          -29.7903753437      -23.2262257858       -0.6546728638  MEMB      59              0.0000000000
      7879        65  POPC      C215          -28.9412818858      -21.2253586349       -0.7837638755  MEMB      59              0.0000000000
      7880        65  POPC      H15R          -27.9198868774      -21.6615157370       -0.7529234980  MEMB      59              0.0000000000
      7881        65  POPC      H15S          -28.9535753419      -20.3031974646       -0.1621439989  MEMB      59              0.0000000000
      7882        65  POPC      C216          -29.2671974822      -20.8052816959       -2.2172982506  MEMB      59              0.0000000000
      7883        65  POPC      H16R          -29.3423864722      -21.6906889917       -2.8843882413  MEMB      59              0.0000000000
      7884        65  POPC      H16S          -28.4011543654      -20.1875134647       -2.5545432263  MEMB      59              0.0000000000
      7885        65  POPC      C217          -30.5109093149      -19.9174684829       -2.3353007860  MEMB      59              0.0000000000
      7886        65  POPC      H17R          -30.2586534050      -19.0552563529       -2.9966283553  MEMB      59              0.0000000000
      7887        65  POPC      H17S          -30.7634926955      -19.5099549977       -1.3305837785  MEMB      59              0.0000000000
      7888        65  POPC      C218          -31.7250458201      -20.6243132233       -2.9284338175  MEMB      59              0.0000000000
      7889        65  POPC      H18R          -32.5827747066      -19.9321980369       -3.0553188919  MEMB      59              0.0000000000
      7890        65  POPC      H18S          -32.0478697294      -21.4555066063       -2.2716457775  MEMB      59              0.0000000000
      7891        65  POPC      H18T          -31.4646774061      -21.0416087295       -3.9232370793  MEMB      59              0.0000000000
      7892        65  POPC      C33           -32.6118515767      -19.8129008293        8.9489248443  MEMB      59              0.0000000000
      7893        65  POPC      H3X           -32.8319236767      -18.7304736682        9.0916694490  MEMB      59              0.0000000000
      7894        65  POPC      H3Y           -33.0760539860      -20.1204451252        7.9849880462  MEMB      59              0.0000000000
      7895        65  POPC      C34           -31.0947092917      -20.0231711377        8.8461690891  MEMB      59              0.0000000000
      7896        65  POPC      H4X           -30.8734662199      -21.0318622481        8.4403948760  MEMB      59              0.0000000000
      7897        65  POPC      H4Y           -30.6453591791      -19.9592545964        9.8642433911  MEMB      59              0.0000000000
      7898        65  POPC      C35           -30.4180334603      -18.9649096206        7.9676760258  MEMB      59              0.0000000000
      7899        65  POPC      H5X           -29.3154798483      -19.1199536546        7.9879850686  MEMB      59              0.0000000000
      7900        65  POPC      H5Y           -30.6332034190      -17.9761980488        8.4344612476  MEMB      59              0.0000000000
      7901        65  POPC      C36           -30.9072446413      -18.9472498969        6.5125223014  MEMB      59              0.0000000000
      7902        65  POPC      H6X           -31.2266506576      -17.9185651351        6.2334536223  MEMB      59              0.0000000000
      7903        65  POPC      H6Y           -31.7992511551      -19.5975944662        6.4016057987  MEMB      59              0.0000000000
      7904        65  POPC      C37           -29.8387285027      -19.4102379484        5.5161620802  MEMB      59              0.0000000000
      7905        65  POPC      H7X           -29.6058899194      -20.4817214829        5.7162157979  MEMB      59              0.0000000000
      7906        65  POPC      H7Y           -28.9033070072      -18.8296169692        5.6777083541  MEMB      59              0.0000000000
      7907        65  POPC      C38           -30.2835036254      -19.2454078300        4.0560999892  MEMB      59              0.0000000000
      7908        65  POPC      H8X           -29.4569473298      -19.6240463008        3.4104681173  MEMB      59              0.0000000000
      7909        65  POPC      H8Y           -30.4309025486      -18.1729588151        3.8065455042  MEMB      59              0.0000000000
      7910        65  POPC      C39           -31.5559643653      -20.0344125961        3.7160211680  MEMB      59              0.0000000000
      7911        65  POPC      H9X           -31.6884099031      -20.8612312609        4.4476739013  MEMB      59              0.0000000000
      7912        65  POPC      H9Y           -31.4011146085      -20.4956173742        2.7156494787  MEMB      59              0.0000000000
      7913        65  POPC      C310          -32.8563734617      -19.2235828802        3.6583177208  MEMB      59              0.0000000000
      7914        65  POPC      H10X          -32.6618601615      -18.2509966677        3.1577251546  MEMB      59              0.0000000000
      7915        65  POPC      H10Y          -33.1990461184      -19.0067427684        4.6928557111  MEMB      59              0.0000000000
      7916        65  POPC      C311          -33.9518435333      -19.9859463742        2.8891656349  MEMB      59              0.0000000000
      7917        65  POPC      H11X          -34.9501318915      -19.5764515818        3.1613030913  MEMB      59              0.0000000000
      7918        65  POPC      H11Y          -33.9293084840      -21.0598724239        3.1782544662  MEMB      59              0.0000000000
      7919        65  POPC      C312          -33.7617448086      -19.8375213446        1.3737037329  MEMB      59              0.0000000000
      7920        65  POPC      H12X          -32.7064577095      -20.0695262402        1.1065360144  MEMB      59              0.0000000000
      7921        65  POPC      H12Y          -33.9629195453      -18.7780175982        1.1472823551  MEMB      59              0.0000000000
      7922        65  POPC      C313          -34.6746826450      -20.6664702774        0.4693967704  MEMB      59              0.0000000000
      7923        65  POPC      H13X          -34.6857086179      -21.7102059193        0.8425415590  MEMB      59              0.0000000000
      7924        65  POPC      H13Y          -34.2350995699      -20.6959030771       -0.5549033345  MEMB      59              0.0000000000
      7925        65  POPC      C314          -36.1030355347      -20.1114117641        0.3628586575  MEMB      59              0.0000000000
      7926        65  POPC      H14X          -36.5324195609      -19.9338351815        1.3726234842  MEMB      59              0.0000000000
      7927        65  POPC      H14Y          -36.7239626887      -20.8927604886       -0.1297754329  MEMB      59              0.0000000000
      7928        65  POPC      C315          -36.2100318717      -18.8199817119       -0.4551706468  MEMB      59              0.0000000000
      7929        65  POPC      H15X          -35.5198694756      -18.8915466458       -1.3264443882  MEMB      59              0.0000000000
      7930        65  POPC      H15Y          -35.8762117148      -17.9563837133        0.1611613548  MEMB      59              0.0000000000
      7931        65  POPC      C316          -37.6248939170      -18.5570738179       -0.9632524645  MEMB      59              0.0000000000
      7932        65  POPC      H16X          -38.0832956342      -19.5061737445       -1.3190064730  MEMB      59              0.0000000000
      7933        65  POPC      H16Y          -37.6071657358      -17.8454800445       -1.8143112817  MEMB      59              0.0000000000
      7934        65  POPC      H16Z          -38.2637831851      -18.1318477432       -0.1576942966  MEMB      59              0.0000000000
      7935        66  POPC      N              19.1937914449      -30.5615908819       19.2890901235  MEMB      60              0.0000000000
      7936        66  POPC      C12            20.6027444969      -30.7961909626       18.8164873687  MEMB      60              0.0000000000
      7937        66  POPC      H12A           21.2743415392      -30.4435157793       19.6047091369  MEMB      60              0.0000000000
      7938        66  POPC      H12B           20.8356056191      -30.1955004632       17.9476607881  MEMB      60              0.0000000000
      7939        66  POPC      C13            18.2328471551      -30.6989183956       18.1553619126  MEMB      60              0.0000000000
      7940        66  POPC      H13A           17.2151333331      -30.6075247948       18.5361240908  MEMB      60              0.0000000000
      7941        66  POPC      H13B           18.3411584914      -29.9371064559       17.4029914199  MEMB      60              0.0000000000
      7942        66  POPC      H13C           18.2753076975      -31.6786224200       17.6921590224  MEMB      60              0.0000000000
      7943        66  POPC      C14            18.7997233099      -31.5729029215       20.2992742817  MEMB      60              0.0000000000
      7944        66  POPC      H14A           18.8121654434      -32.5714023872       19.8496643032  MEMB      60              0.0000000000
      7945        66  POPC      H14B           19.5266770354      -31.6436259541       21.0994274677  MEMB      60              0.0000000000
      7946        66  POPC      H14C           17.8047182818      -31.4037697632       20.6894772595  MEMB      60              0.0000000000
      7947        66  POPC      C15            19.0660420810      -29.1983601577       19.8823715822  MEMB      60              0.0000000000
      7948        66  POPC      H15A           19.7376515858      -29.0824216964       20.7184655207  MEMB      60              0.0000000000
      7949        66  POPC      H15B           18.0453405532      -29.0289115830       20.2425011708  MEMB      60              0.0000000000
      7950        66  POPC      H15C           19.2180136196      -28.4303067186       19.1375090944  MEMB      60              0.0000000000
      7951        66  POPC      C11            21.0066724496      -32.2588056372       18.5153772969  MEMB      60              0.0000000000
      7952        66  POPC      H11A           21.7078755152      -32.2705053827       17.6457313912  MEMB      60              0.0000000000
      7953        66  POPC      H11B           20.1173579135      -32.8545919989       18.2065000460  MEMB      60              0.0000000000
      7954        66  POPC      P              22.8897785433      -32.1476781330       20.2802288781  MEMB      60              0.0000000000
      7955        66  POPC      O13            23.8705532129      -33.1304333504       20.7913279646  MEMB      60              0.0000000000
      7956        66  POPC      O14            22.3154364305      -31.1943688602       21.2695210703  MEMB      60              0.0000000000
      7957        66  POPC      O12            21.6186624491      -32.8534340000       19.6658829837  MEMB      60              0.0000000000
      7958        66  POPC      O11            23.3933871753      -31.2920323068       19.0556602190  MEMB      60              0.0000000000
      7959        66  POPC      C1             24.1025602811      -30.0615870998       19.2340857551  MEMB      60              0.0000000000
      7960        66  POPC      HA             25.1753562265      -30.2660454203       19.4559114747  MEMB      60              0.0000000000
      7961        66  POPC      HB             23.6718179109      -29.4630945912       20.0747364964  MEMB      60              0.0000000000
      7962        66  POPC      C2             24.0306324743      -29.1158280248       17.9916407222  MEMB      60              0.0000000000
      7963        66  POPC      HS             24.2768702881      -28.0935302464       18.3790443173  MEMB      60              0.0000000000
      7964        66  POPC      O21            22.7046772903      -29.1645847617       17.4024605709  MEMB      60              0.0000000000
      7965        66  POPC      C21            22.4944496505      -28.1257819329       16.6148669477  MEMB      60              0.0000000000
      7966        66  POPC      O22            22.8083947416      -26.9736425863       16.8704461173  MEMB      60              0.0000000000
      7967        66  POPC      C22            21.8082657465      -28.5918956543       15.3382850087  MEMB      60              0.0000000000
      7968        66  POPC      H2R            20.7110044850      -28.5200786363       15.4505903837  MEMB      60              0.0000000000
      7969        66  POPC      H2S            22.0843435232      -29.6546388831       15.1547451244  MEMB      60              0.0000000000
      7970        66  POPC      C3             25.1129488735      -29.4540541720       16.8930732039  MEMB      60              0.0000000000
      7971        66  POPC      HX             26.0992687369      -29.3103302954       17.3877529531  MEMB      60              0.0000000000
      7972        66  POPC      HY             25.0651855867      -28.6996631612       16.0795064035  MEMB      60              0.0000000000
      7973        66  POPC      O31            25.0631860716      -30.8022207383       16.3774955729  MEMB      60              0.0000000000
      7974        66  POPC      C31            24.8837794017      -30.9967632635       15.0866238247  MEMB      60              0.0000000000
      7975        66  POPC      O32            24.5809525603      -30.1351999759       14.2774440221  MEMB      60              0.0000000000
      7976        66  POPC      C32            25.0963449321      -32.4733204933       14.7516314668  MEMB      60              0.0000000000
      7977        66  POPC      H2X            24.6598453993      -33.1077908435       15.5492996105  MEMB      60              0.0000000000
      7978        66  POPC      H2Y            26.1949673969      -32.6386608243       14.7570057097  MEMB      60              0.0000000000
      7979        66  POPC      C23            22.3146161989      -27.7584235420       14.1475950876  MEMB      60              0.0000000000
      7980        66  POPC      H3R            23.4325538770      -27.7670590814       14.1328728838  MEMB      60              0.0000000000
      7981        66  POPC      H3S            21.9925021902      -26.6971019148       14.2353032348  MEMB      60              0.0000000000
      7982        66  POPC      C24            21.8480155417      -28.3329290676       12.8102286739  MEMB      60              0.0000000000
      7983        66  POPC      H4R            20.7380556239      -28.2569427703       12.7684169889  MEMB      60              0.0000000000
      7984        66  POPC      H4S            22.1280351959      -29.4088121209       12.7346110683  MEMB      60              0.0000000000
      7985        66  POPC      C25            22.4423221801      -27.5686993983       11.6233199998  MEMB      60              0.0000000000
      7986        66  POPC      H5R            22.5146274427      -26.4885892360       11.8770310706  MEMB      60              0.0000000000
      7987        66  POPC      H5S            21.7490429076      -27.6763751793       10.7656746633  MEMB      60              0.0000000000
      7988        66  POPC      C26            23.7920523444      -28.1030214631       11.1382102990  MEMB      60              0.0000000000
      7989        66  POPC      H6R            24.3761881087      -28.4999496568       11.9980203924  MEMB      60              0.0000000000
      7990        66  POPC      H6S            24.3713510608      -27.2695795439       10.6799343539  MEMB      60              0.0000000000
      7991        66  POPC      C27            23.5819988158      -29.1902930741       10.0774524299  MEMB      60              0.0000000000
      7992        66  POPC      H7R            23.0529069850      -28.7623062768        9.1975784574  MEMB      60              0.0000000000
      7993        66  POPC      H7S            22.9201768320      -29.9729857890       10.5161348674  MEMB      60              0.0000000000
      7994        66  POPC      C28            24.8724186764      -29.8731504751        9.6193949868  MEMB      60              0.0000000000
      7995        66  POPC      H8R            24.5839593369      -30.7780763507        9.0378328336  MEMB      60              0.0000000000
      7996        66  POPC      H8S            25.3785432578      -30.2509796755       10.5338117096  MEMB      60              0.0000000000
      7997        66  POPC      C29            25.8217753104      -29.0158026993        8.8183768108  MEMB      60              0.0000000000
      7998        66  POPC      H91            26.5668078199      -28.4668725932        9.4147482429  MEMB      60              0.0000000000
      7999        66  POPC      C210           25.7967478735      -28.8308452447        7.4875229788  MEMB      60              0.0000000000
      8000        66  POPC      H101           26.5869241226      -28.2217375810        7.0189271151  MEMB      60              0.0000000000
      8001        66  POPC      C211           24.8052430398      -29.4388037212        6.5337770012  MEMB      60              0.0000000000
      8002        66  POPC      H11R           24.1034964372      -28.6506687487        6.1833535504  MEMB      60              0.0000000000
      8003        66  POPC      H11S           24.1796985112      -30.1983587190        7.0415968416  MEMB      60              0.0000000000
      8004        66  POPC      C212           25.4102373386      -30.1078023990        5.2933173485  MEMB      60              0.0000000000
      8005        66  POPC      H12R           26.0608143180      -30.9573739539        5.6035335846  MEMB      60              0.0000000000
      8006        66  POPC      H12S           26.0390780562      -29.3835267402        4.7296357163  MEMB      60              0.0000000000
      8007        66  POPC      C213           24.2881001689      -30.6323865849        4.3867407514  MEMB      60              0.0000000000
      8008        66  POPC      H13R           23.6445979804      -29.7885807401        4.0592057084  MEMB      60              0.0000000000
      8009        66  POPC      H13S           23.6507885211      -31.3271519730        4.9805660306  MEMB      60              0.0000000000
      8010        66  POPC      C214           24.7979376678      -31.3819391442        3.1584806455  MEMB      60              0.0000000000
      8011        66  POPC      H14R           25.4087178166      -32.2325886770        3.5266414398  MEMB      60              0.0000000000
      8012        66  POPC      H14S           25.4642805113      -30.7359462148        2.5479157078  MEMB      60              0.0000000000
      8013        66  POPC      C215           23.6626998595      -31.9490030191        2.2937992720  MEMB      60              0.0000000000
      8014        66  POPC      H15R           22.8052388720      -32.2602795936        2.9283626025  MEMB      60              0.0000000000
      8015        66  POPC      H15S           24.0425517186      -32.8780189726        1.8221934091  MEMB      60              0.0000000000
      8016        66  POPC      C216           23.1930106193      -31.0011328218        1.1799146598  MEMB      60              0.0000000000
      8017        66  POPC      H16R           24.0183167774      -30.3032152810        0.9121764426  MEMB      60              0.0000000000
      8018        66  POPC      H16S           22.3526687463      -30.3805346716        1.5620220866  MEMB      60              0.0000000000
      8019        66  POPC      C217           22.7631490398      -31.7314131766       -0.1047697635  MEMB      60              0.0000000000
      8020        66  POPC      H17R           23.6807753781      -32.0612374714       -0.6450153386  MEMB      60              0.0000000000
      8021        66  POPC      H17S           22.2354936690      -31.0046358287       -0.7634426618  MEMB      60              0.0000000000
      8022        66  POPC      C218           21.8754144911      -32.9598078771        0.1173319877  MEMB      60              0.0000000000
      8023        66  POPC      H18R           21.4799386579      -33.3413284807       -0.8471375917  MEMB      60              0.0000000000
      8024        66  POPC      H18S           21.0222911907      -32.7202500445        0.7761920438  MEMB      60              0.0000000000
      8025        66  POPC      H18T           22.4492503878      -33.7770965858        0.6032327172  MEMB      60              0.0000000000
      8026        66  POPC      C33            24.5065587922      -32.8202976965       13.3633568200  MEMB      60              0.0000000000
      8027        66  POPC      H3X            24.7035128590      -31.9790891324       12.6612064403  MEMB      60              0.0000000000
      8028        66  POPC      H3Y            23.4042356428      -32.9341304719       13.4652483193  MEMB      60              0.0000000000
      8029        66  POPC      C34            25.1022957063      -34.0875297903       12.7370965547  MEMB      60              0.0000000000
      8030        66  POPC      H4X            25.0094842884      -34.8966743501       13.4859747389  MEMB      60              0.0000000000
      8031        66  POPC      H4Y            26.1897193699      -33.9416151414       12.5527917212  MEMB      60              0.0000000000
      8032        66  POPC      C35            24.3971195304      -34.4929321306       11.4295078089  MEMB      60              0.0000000000
      8033        66  POPC      H5X            23.3000990100      -34.5087781955       11.6155458091  MEMB      60              0.0000000000
      8034        66  POPC      H5Y            24.6933810081      -35.5265998043       11.1439543209  MEMB      60              0.0000000000
      8035        66  POPC      C36            24.7389761974      -33.5370940678       10.2725658098  MEMB      60              0.0000000000
      8036        66  POPC      H6X            25.8002312869      -33.6970506847        9.9723140087  MEMB      60              0.0000000000
      8037        66  POPC      H6Y            24.6550190336      -32.4892364996       10.6310556222  MEMB      60              0.0000000000
      8038        66  POPC      C37            23.8318295019      -33.6629651640        9.0393137090  MEMB      60              0.0000000000
      8039        66  POPC      H7X            23.8407940684      -34.7082518268        8.6623628904  MEMB      60              0.0000000000
      8040        66  POPC      H7Y            24.2510537519      -33.0139918975        8.2359733144  MEMB      60              0.0000000000
      8041        66  POPC      C38            22.3875716604      -33.2115780466        9.3131122676  MEMB      60              0.0000000000
      8042        66  POPC      H8X            22.3873787019      -32.2222801605        9.8215539057  MEMB      60              0.0000000000
      8043        66  POPC      H8Y            21.9156436430      -33.9458704185       10.0048933164  MEMB      60              0.0000000000
      8044        66  POPC      C39            21.5366505044      -33.1309862997        8.0390245419  MEMB      60              0.0000000000
      8045        66  POPC      H9X            20.4825983127      -33.3933480033        8.2859501408  MEMB      60              0.0000000000
      8046        66  POPC      H9Y            21.9202599850      -33.8778953938        7.3117186631  MEMB      60              0.0000000000
      8047        66  POPC      C310           21.5386904990      -31.7598361529        7.3511013171  MEMB      60              0.0000000000
      8048        66  POPC      H10X           22.5895811650      -31.4468555220        7.1909906719  MEMB      60              0.0000000000
      8049        66  POPC      H10Y           21.0539168558      -31.0072806465        8.0110131047  MEMB      60              0.0000000000
      8050        66  POPC      C311           20.8213405786      -31.8258569678        5.9939977128  MEMB      60              0.0000000000
      8051        66  POPC      H11X           19.8342580091      -32.3175816826        6.1454349161  MEMB      60              0.0000000000
      8052        66  POPC      H11Y           21.4157009015      -32.4688757021        5.3054960692  MEMB      60              0.0000000000
      8053        66  POPC      C312           20.5953100538      -30.4577581678        5.3349227515  MEMB      60              0.0000000000
      8054        66  POPC      H12X           21.5477972907      -29.8808241641        5.3540207617  MEMB      60              0.0000000000
      8055        66  POPC      H12Y           19.8540430456      -29.8907092564        5.9366623889  MEMB      60              0.0000000000
      8056        66  POPC      C313           20.1138526650      -30.5526829838        3.8721595150  MEMB      60              0.0000000000
      8057        66  POPC      H13X           20.9535606783      -30.9537081745        3.2625308482  MEMB      60              0.0000000000
      8058        66  POPC      H13Y           19.8902214379      -29.5304953049        3.4964681657  MEMB      60              0.0000000000
      8059        66  POPC      C314           18.8909177758      -31.4617399958        3.6431887940  MEMB      60              0.0000000000
      8060        66  POPC      H14X           18.0115267163      -31.0736618048        4.2010253137  MEMB      60              0.0000000000
      8061        66  POPC      H14Y           19.1308997799      -32.4749262177        4.0390744640  MEMB      60              0.0000000000
      8062        66  POPC      C315           18.5339628631      -31.6383335895        2.1561771017  MEMB      60              0.0000000000
      8063        66  POPC      H15X           17.9125640192      -32.5557606917        2.0418413323  MEMB      60              0.0000000000
      8064        66  POPC      H15Y           19.4742664609      -31.8072901830        1.5948828727  MEMB      60              0.0000000000
      8065        66  POPC      C316           17.7947036295      -30.4642156620        1.5126423567  MEMB      60              0.0000000000
      8066        66  POPC      H16X           16.8215486879      -30.2911894785        2.0194002693  MEMB      60              0.0000000000
      8067        66  POPC      H16Y           17.6014893208      -30.6669218348        0.4371807170  MEMB      60              0.0000000000
      8068        66  POPC      H16Z           18.4082902956      -29.5418972176        1.5831628096  MEMB      60              0.0000000000
      8069        67  POPC      N             -22.9591253709      -31.4785200856       21.0293610316  MEMB      61              0.0000000000
      8070        67  POPC      C12           -21.5415803339      -31.9428089468       20.7187095453  MEMB      61              0.0000000000
      8071        67  POPC      H12A          -21.4960758150      -33.0124217779       20.8938518922  MEMB      61              0.0000000000
      8072        67  POPC      H12B          -20.8800391477      -31.4650951675       21.4249038996  MEMB      61              0.0000000000
      8073        67  POPC      C13           -23.0910829254      -29.9885920893       20.9774482204  MEMB      61              0.0000000000
      8074        67  POPC      H13A          -24.1366716170      -29.6817036465       21.0006796751  MEMB      61              0.0000000000
      8075        67  POPC      H13B          -22.6024427807      -29.5027565144       21.8126347090  MEMB      61              0.0000000000
      8076        67  POPC      H13C          -22.6611277579      -29.6226021263       20.0488304635  MEMB      61              0.0000000000
      8077        67  POPC      C14           -23.8839717288      -32.0675058345       20.0221787576  MEMB      61              0.0000000000
      8078        67  POPC      H14A          -23.8721870155      -33.1455371027       20.0440858644  MEMB      61              0.0000000000
      8079        67  POPC      H14B          -24.8992916739      -31.7094266333       20.1545975036  MEMB      61              0.0000000000
      8080        67  POPC      H14C          -23.5418763333      -31.7728356508       19.0289521161  MEMB      61              0.0000000000
      8081        67  POPC      C15           -23.3717531026      -31.9475615757       22.3706526226  MEMB      61              0.0000000000
      8082        67  POPC      H15A          -24.4551190907      -31.9200035771       22.4610188045  MEMB      61              0.0000000000
      8083        67  POPC      H15B          -22.9186611921      -31.3478009890       23.1508224245  MEMB      61              0.0000000000
      8084        67  POPC      H15C          -23.1066280578      -32.9868537770       22.5530314072  MEMB      61              0.0000000000
      8085        67  POPC      C11           -20.9777888447      -31.7279604995       19.2855161298  MEMB      61              0.0000000000
      8086        67  POPC      H11A          -19.8927089080      -31.9803202042       19.2848518856  MEMB      61              0.0000000000
      8087        67  POPC      H11B          -21.0334412701      -30.6356229148       19.0442543161  MEMB      61              0.0000000000
      8088        67  POPC      P             -21.8156063887      -32.0160757895       16.8521987592  MEMB      61              0.0000000000
      8089        67  POPC      O13           -22.5898252350      -32.9555636721       16.0217144782  MEMB      61              0.0000000000
      8090        67  POPC      O14           -20.4580352983      -31.6481712643       16.3880313930  MEMB      61              0.0000000000
      8091        67  POPC      O12           -21.6425269341      -32.5759776988       18.3248423469  MEMB      61              0.0000000000
      8092        67  POPC      O11           -22.6421803506      -30.7356483685       17.2714941175  MEMB      61              0.0000000000
      8093        67  POPC      C1            -23.9158141986      -30.4094846391       16.7510631041  MEMB      61              0.0000000000
      8094        67  POPC      HA            -24.5119518424      -29.8974385439       17.5389743769  MEMB      61              0.0000000000
      8095        67  POPC      HB            -24.4866953714      -31.3118461998       16.4324214424  MEMB      61              0.0000000000
      8096        67  POPC      C2            -23.7752069537      -29.4468660504       15.5576920075  MEMB      61              0.0000000000
      8097        67  POPC      HS            -24.7979381054      -29.2521388293       15.1897862082  MEMB      61              0.0000000000
      8098        67  POPC      O21           -22.9287334491      -30.0666847377       14.5706577046  MEMB      61              0.0000000000
      8099        67  POPC      C21           -23.4207099397      -30.2387380998       13.3651579916  MEMB      61              0.0000000000
      8100        67  POPC      O22           -24.4806386226      -29.7999356219       12.9525402216  MEMB      61              0.0000000000
      8101        67  POPC      C22           -22.4463760854      -31.0328112939       12.4947020871  MEMB      61              0.0000000000
      8102        67  POPC      H2R           -23.0230111322      -31.8593256243       12.0451559687  MEMB      61              0.0000000000
      8103        67  POPC      H2S           -21.6500042929      -31.4731480159       13.1294295349  MEMB      61              0.0000000000
      8104        67  POPC      C3            -23.1890999635      -28.0714786578       15.9829953197  MEMB      61              0.0000000000
      8105        67  POPC      HX            -22.2192303261      -28.2696888519       16.4953983685  MEMB      61              0.0000000000
      8106        67  POPC      HY            -23.8554150441      -27.5646665905       16.7181640139  MEMB      61              0.0000000000
      8107        67  POPC      O31           -22.9498129236      -27.2534229006       14.8250215180  MEMB      61              0.0000000000
      8108        67  POPC      C31           -24.0305136082      -26.7789828023       14.2111581275  MEMB      61              0.0000000000
      8109        67  POPC      O32           -25.1450236833      -26.6828678686       14.6906473798  MEMB      61              0.0000000000
      8110        67  POPC      C32           -23.6660334186      -26.5527933412       12.7318987082  MEMB      61              0.0000000000
      8111        67  POPC      H2X           -24.2145043971      -27.3234872304       12.1506723217  MEMB      61              0.0000000000
      8112        67  POPC      H2Y           -22.5811542957      -26.7491724456       12.6056781862  MEMB      61              0.0000000000
      8113        67  POPC      C23           -21.8640569953      -30.1897988651       11.3392623262  MEMB      61              0.0000000000
      8114        67  POPC      H3R           -20.7705601251      -30.0836646959       11.5099267147  MEMB      61              0.0000000000
      8115        67  POPC      H3S           -22.2871433780      -29.1608227738       11.3433635942  MEMB      61              0.0000000000
      8116        67  POPC      C24           -22.0588989399      -30.7937668933        9.9333211136  MEMB      61              0.0000000000
      8117        67  POPC      H4R           -21.4415873389      -31.7167291576        9.8505796995  MEMB      61              0.0000000000
      8118        67  POPC      H4S           -21.6539926073      -30.0554903779        9.2098352976  MEMB      61              0.0000000000
      8119        67  POPC      C25           -23.4978659573      -31.1236617299        9.4844989642  MEMB      61              0.0000000000
      8120        67  POPC      H5R           -23.8566724349      -32.0363019018       10.0076550472  MEMB      61              0.0000000000
      8121        67  POPC      H5S           -23.4569841164      -31.3765196202        8.3986190034  MEMB      61              0.0000000000
      8122        67  POPC      C26           -24.5259847385      -29.9957463256        9.6829470353  MEMB      61              0.0000000000
      8123        67  POPC      H6R           -24.0292346161      -29.0858450972       10.0797063317  MEMB      61              0.0000000000
      8124        67  POPC      H6S           -25.2737230880      -30.3172200429       10.4430514038  MEMB      61              0.0000000000
      8125        67  POPC      C27           -25.2592334514      -29.5995482873        8.3880097274  MEMB      61              0.0000000000
      8126        67  POPC      H7R           -25.6168951702      -30.5129670414        7.8684983112  MEMB      61              0.0000000000
      8127        67  POPC      H7S           -24.5153683193      -29.1220086603        7.7182854168  MEMB      61              0.0000000000
      8128        67  POPC      C28           -26.4526624679      -28.6487696530        8.6506252299  MEMB      61              0.0000000000
      8129        67  POPC      H8R           -26.3507887928      -28.3253730786        9.7121229600  MEMB      61              0.0000000000
      8130        67  POPC      H8S           -27.3966476402      -29.2351591147        8.6215612363  MEMB      61              0.0000000000
      8131        67  POPC      C29           -26.6032285618      -27.3993659250        7.8117808110  MEMB      61              0.0000000000
      8132        67  POPC      H91           -26.9092752062      -26.5213698044        8.4014069340  MEMB      61              0.0000000000
      8133        67  POPC      C210          -26.4192313853      -27.2208648814        6.4884258353  MEMB      61              0.0000000000
      8134        67  POPC      H101          -26.5433734299      -26.2058646616        6.0806980921  MEMB      61              0.0000000000
      8135        67  POPC      C211          -26.0080263794      -28.2345650990        5.4524760819  MEMB      61              0.0000000000
      8136        67  POPC      H11R          -26.6633716343      -28.1393999220        4.5577321051  MEMB      61              0.0000000000
      8137        67  POPC      H11S          -26.1176421182      -29.2746390550        5.8241914348  MEMB      61              0.0000000000
      8138        67  POPC      C212          -24.5468518302      -28.0593664551        5.0117403432  MEMB      61              0.0000000000
      8139        67  POPC      H12R          -23.8726180458      -28.2495781673        5.8743439377  MEMB      61              0.0000000000
      8140        67  POPC      H12S          -24.3579435436      -27.0129297600        4.6858853569  MEMB      61              0.0000000000
      8141        67  POPC      C213          -24.1626478739      -29.0209028952        3.8779177355  MEMB      61              0.0000000000
      8142        67  POPC      H13R          -24.7635266669      -28.7891999254        2.9716971909  MEMB      61              0.0000000000
      8143        67  POPC      H13S          -24.4013241342      -30.0642257824        4.1847316731  MEMB      61              0.0000000000
      8144        67  POPC      C214          -22.6670573837      -28.9226818662        3.5652875008  MEMB      61              0.0000000000
      8145        67  POPC      H14R          -22.1037655139      -29.2217588435        4.4787204317  MEMB      61              0.0000000000
      8146        67  POPC      H14S          -22.4081054452      -27.8631150298        3.3432630062  MEMB      61              0.0000000000
      8147        67  POPC      C215          -22.1983907101      -29.8045474813        2.4032093279  MEMB      61              0.0000000000
      8148        67  POPC      H15R          -22.4463604470      -30.8692704429        2.6045111487  MEMB      61              0.0000000000
      8149        67  POPC      H15S          -21.0875741368      -29.7179191330        2.3552881033  MEMB      61              0.0000000000
      8150        67  POPC      C216          -22.7441015139      -29.3851706461        1.0357840405  MEMB      61              0.0000000000
      8151        67  POPC      H16R          -22.6996325687      -28.2741685133        0.9674890805  MEMB      61              0.0000000000
      8152        67  POPC      H16S          -23.8085543123      -29.6743187885        0.9399155427  MEMB      61              0.0000000000
      8153        67  POPC      C217          -21.9043170767      -29.9637061122       -0.1124510004  MEMB      61              0.0000000000
      8154        67  POPC      H17R          -20.8554356576      -29.6461892162        0.0748048037  MEMB      61              0.0000000000
      8155        67  POPC      H17S          -22.2433899948      -29.5017163707       -1.0670638735  MEMB      61              0.0000000000
      8156        67  POPC      C218          -21.9022130983      -31.4827568592       -0.2827270596  MEMB      61              0.0000000000
      8157        67  POPC      H18R          -22.6642891213      -31.7683538693       -1.0331222609  MEMB      61              0.0000000000
      8158        67  POPC      H18S          -22.1246061764      -32.0008818410        0.6727169100  MEMB      61              0.0000000000
      8159        67  POPC      H18T          -20.9191679312      -31.8370367395       -0.6597878278  MEMB      61              0.0000000000
      8160        67  POPC      C33           -23.9924522999      -25.1582313271       12.1536071718  MEMB      61              0.0000000000
      8161        67  POPC      H3X           -23.6217155219      -24.3605148292       12.8412715720  MEMB      61              0.0000000000
      8162        67  POPC      H3Y           -25.0962049891      -25.0381900436       12.0610564341  MEMB      61              0.0000000000
      8163        67  POPC      C34           -23.3326668455      -24.9601658131       10.7734185599  MEMB      61              0.0000000000
      8164        67  POPC      H4X           -22.2312218016      -25.0165318455       10.8995702301  MEMB      61              0.0000000000
      8165        67  POPC      H4Y           -23.5874661132      -23.9400609330       10.4092040679  MEMB      61              0.0000000000
      8166        67  POPC      C35           -23.7246921628      -25.9963807965        9.7047859685  MEMB      61              0.0000000000
      8167        67  POPC      H5X           -24.8366249097      -26.0570121676        9.7042992430  MEMB      61              0.0000000000
      8168        67  POPC      H5Y           -23.3382503754      -27.0002305705        9.9760376816  MEMB      61              0.0000000000
      8169        67  POPC      C36           -23.2729185950      -25.6361910211        8.2731432231  MEMB      61              0.0000000000
      8170        67  POPC      H6X           -23.3510839046      -24.5378381181        8.1324388134  MEMB      61              0.0000000000
      8171        67  POPC      H6Y           -23.9800426561      -26.1116982146        7.5557001209  MEMB      61              0.0000000000
      8172        67  POPC      C37           -21.8562540459      -26.0675132041        7.8491867471  MEMB      61              0.0000000000
      8173        67  POPC      H7X           -21.0892838394      -25.5869581334        8.4879426982  MEMB      61              0.0000000000
      8174        67  POPC      H7Y           -21.7041577031      -25.6944177980        6.8088070500  MEMB      61              0.0000000000
      8175        67  POPC      C38           -21.6173492056      -27.5820219327        7.8487776437  MEMB      61              0.0000000000
      8176        67  POPC      H8X           -22.5691242189      -28.1097145519        7.6276161223  MEMB      61              0.0000000000
      8177        67  POPC      H8Y           -21.3013107244      -27.8929745257        8.8680036103  MEMB      61              0.0000000000
      8178        67  POPC      C39           -20.5621271713      -28.0183614817        6.8173944794  MEMB      61              0.0000000000
      8179        67  POPC      H9X           -19.6221110014      -27.4552306785        6.9972646628  MEMB      61              0.0000000000
      8180        67  POPC      H9Y           -20.9174910953      -27.7433479575        5.7991001129  MEMB      61              0.0000000000
      8181        67  POPC      C310          -20.2940330472      -29.5322988050        6.8583403172  MEMB      61              0.0000000000
      8182        67  POPC      H10X          -21.2438991803      -30.0490281133        6.5982647533  MEMB      61              0.0000000000
      8183        67  POPC      H10Y          -20.0172449832      -29.8330642643        7.8927950008  MEMB      61              0.0000000000
      8184        67  POPC      C311          -19.1696691270      -29.9946953997        5.9189516299  MEMB      61              0.0000000000
      8185        67  POPC      H11X          -18.1951043316      -29.7836345329        6.4101737527  MEMB      61              0.0000000000
      8186        67  POPC      H11Y          -19.2129982308      -29.4154468108        4.9699197420  MEMB      61              0.0000000000
      8187        67  POPC      C312          -19.2038413906      -31.4945515912        5.5849067997  MEMB      61              0.0000000000
      8188        67  POPC      H12X          -19.3048356864      -32.0871285874        6.5200823833  MEMB      61              0.0000000000
      8189        67  POPC      H12Y          -18.2309557890      -31.7655923219        5.1151553373  MEMB      61              0.0000000000
      8190        67  POPC      C313          -20.3303898314      -31.8456544228        4.6072290136  MEMB      61              0.0000000000
      8191        67  POPC      H13X          -20.2577525044      -31.1702548180        3.7301638387  MEMB      61              0.0000000000
      8192        67  POPC      H13Y          -21.3109853087      -31.6430472115        5.0944925725  MEMB      61              0.0000000000
      8193        67  POPC      C314          -20.3236981327      -33.3037296484        4.1255286546  MEMB      61              0.0000000000
      8194        67  POPC      H14X          -21.2803643011      -33.4634884454        3.5747721698  MEMB      61              0.0000000000
      8195        67  POPC      H14Y          -20.3133022564      -33.9822907463        5.0070710650  MEMB      61              0.0000000000
      8196        67  POPC      C315          -19.1854692815      -33.6846466611        3.1687151557  MEMB      61              0.0000000000
      8197        67  POPC      H15X          -19.3060245583      -34.7626438280        2.9084594920  MEMB      61              0.0000000000
      8198        67  POPC      H15Y          -18.2063277490      -33.5725781918        3.6847825080  MEMB      61              0.0000000000
      8199        67  POPC      C316          -19.1781017764      -32.8685305646        1.8750739068  MEMB      61              0.0000000000
      8200        67  POPC      H16X          -18.4252455002      -33.2661089642        1.1648926971  MEMB      61              0.0000000000
      8201        67  POPC      H16Y          -18.9335512111      -31.8049357522        2.0832361080  MEMB      61              0.0000000000
      8202        67  POPC      H16Z          -20.1750819583      -32.9137240797        1.3899276130  MEMB      61              0.0000000000
      8203        68  POPC      N             -35.5196561696       22.8142870276       18.5259334329  MEMB      62              0.0000000000
      8204        68  POPC      C12           -36.3965479940       23.7008461109       19.4128062891  MEMB      62              0.0000000000
      8205        68  POPC      H12A          -36.9119476651       23.0621520190       20.1309318193  MEMB      62              0.0000000000
      8206        68  POPC      H12B          -37.1773230150       24.1801515829       18.8356248769  MEMB      62              0.0000000000
      8207        68  POPC      C13           -34.7426273545       21.8976332441       19.4258366475  MEMB      62              0.0000000000
      8208        68  POPC      H13A          -34.4425601066       22.4691265550       20.3074704542  MEMB      62              0.0000000000
      8209        68  POPC      H13B          -35.3470881709       21.0561239571       19.7421366457  MEMB      62              0.0000000000
      8210        68  POPC      H13C          -33.8460223268       21.5322595080       18.9491827775  MEMB      62              0.0000000000
      8211        68  POPC      C14           -36.3483331286       21.9885324736       17.5991856201  MEMB      62              0.0000000000
      8212        68  POPC      H14A          -36.8566651314       22.6025644458       16.8695776118  MEMB      62              0.0000000000
      8213        68  POPC      H14B          -35.7269665844       21.2685485596       17.0812896821  MEMB      62              0.0000000000
      8214        68  POPC      H14C          -37.1088304714       21.4463983940       18.1658433488  MEMB      62              0.0000000000
      8215        68  POPC      C15           -34.5610732955       23.6634675405       17.7662232148  MEMB      62              0.0000000000
      8216        68  POPC      H15A          -35.0498974009       24.4316714811       17.1852032779  MEMB      62              0.0000000000
      8217        68  POPC      H15B          -33.9001900250       23.0940284883       17.1303646421  MEMB      62              0.0000000000
      8218        68  POPC      H15C          -33.9227677660       24.1860467502       18.4828743469  MEMB      62              0.0000000000
      8219        68  POPC      C11           -35.6901596749       24.8218677371       20.2262769275  MEMB      62              0.0000000000
      8220        68  POPC      H11A          -36.4620596432       25.3097853654       20.8622492927  MEMB      62              0.0000000000
      8221        68  POPC      H11B          -35.3131849463       25.6071566439       19.5297337520  MEMB      62              0.0000000000
      8222        68  POPC      P             -33.2042954262       24.8888613010       21.1459932252  MEMB      62              0.0000000000
      8223        68  POPC      O13           -32.2783998333       23.7813065126       21.5276967781  MEMB      62              0.0000000000
      8224        68  POPC      O14           -33.2622668427       26.0452310361       22.0658482828  MEMB      62              0.0000000000
      8225        68  POPC      O12           -34.6748051391       24.2922583882       21.0702817854  MEMB      62              0.0000000000
      8226        68  POPC      O11           -32.9340160238       25.3712748968       19.6448464366  MEMB      62              0.0000000000
      8227        68  POPC      C1            -32.3131544363       26.6305408069       19.3543352953  MEMB      62              0.0000000000
      8228        68  POPC      HA            -31.2445691178       26.4626528056       19.1078479521  MEMB      62              0.0000000000
      8229        68  POPC      HB            -32.3222298935       27.3252232612       20.2302625315  MEMB      62              0.0000000000
      8230        68  POPC      C2            -32.9963817222       27.4244836756       18.1858802462  MEMB      62              0.0000000000
      8231        68  POPC      HS            -33.5238810700       28.2711236957       18.6840005693  MEMB      62              0.0000000000
      8232        68  POPC      O21           -33.9446636591       26.6030761776       17.4427423495  MEMB      62              0.0000000000
      8233        68  POPC      C21           -34.8504260582       27.3637433492       16.7811059807  MEMB      62              0.0000000000
      8234        68  POPC      O22           -34.8911388199       28.5770829219       16.8783268165  MEMB      62              0.0000000000
      8235        68  POPC      C22           -35.6238837946       26.5367765589       15.7507067838  MEMB      62              0.0000000000
      8236        68  POPC      H2R           -36.3361501924       25.8649913848       16.2643396037  MEMB      62              0.0000000000
      8237        68  POPC      H2S           -34.8760682966       25.9142098146       15.2183297213  MEMB      62              0.0000000000
      8238        68  POPC      C3            -31.9395139487       28.0520309583       17.1793082732  MEMB      62              0.0000000000
      8239        68  POPC      HX            -31.7296312666       29.0561626935       17.6021618724  MEMB      62              0.0000000000
      8240        68  POPC      HY            -32.4774586240       28.2305171496       16.2198717393  MEMB      62              0.0000000000
      8241        68  POPC      O31           -30.6841194009       27.3203888083       16.9525279104  MEMB      62              0.0000000000
      8242        68  POPC      C31           -30.0389146664       27.7914335298       15.8393750687  MEMB      62              0.0000000000
      8243        68  POPC      O32           -30.4604523213       28.7330539864       15.1897916554  MEMB      62              0.0000000000
      8244        68  POPC      C32           -28.6425445423       27.1548322236       15.5570416315  MEMB      62              0.0000000000
      8245        68  POPC      H2X           -28.5178229992       26.2493973052       16.1562111026  MEMB      62              0.0000000000
      8246        68  POPC      H2Y           -27.9175338537       27.9031409665       15.9460633154  MEMB      62              0.0000000000
      8247        68  POPC      C23           -36.3658128047       27.4431286177       14.7307792712  MEMB      62              0.0000000000
      8248        68  POPC      H3R           -35.8720036764       28.4406824365       14.6647888154  MEMB      62              0.0000000000
      8249        68  POPC      H3S           -37.4013563705       27.6463209342       15.0891420339  MEMB      62              0.0000000000
      8250        68  POPC      C24           -36.3848729212       26.8777896723       13.2965243614  MEMB      62              0.0000000000
      8251        68  POPC      H4R           -37.4079600173       26.5035647585       13.0866613692  MEMB      62              0.0000000000
      8252        68  POPC      H4S           -35.6864510532       26.0158265331       13.2231257971  MEMB      62              0.0000000000
      8253        68  POPC      C25           -35.9883597913       27.9030140284       12.2153669286  MEMB      62              0.0000000000
      8254        68  POPC      H5R           -35.0749950208       28.4470624860       12.5526995956  MEMB      62              0.0000000000
      8255        68  POPC      H5S           -36.7941758258       28.6653228764       12.1148950176  MEMB      62              0.0000000000
      8256        68  POPC      C26           -35.6974715274       27.2851304094       10.8302997585  MEMB      62              0.0000000000
      8257        68  POPC      H6R           -34.8258623100       26.5971742510       10.8865112377  MEMB      62              0.0000000000
      8258        68  POPC      H6S           -35.4252139494       28.1036189990       10.1299065718  MEMB      62              0.0000000000
      8259        68  POPC      C27           -36.8421948660       26.4594421458       10.2287700778  MEMB      62              0.0000000000
      8260        68  POPC      H7R           -37.8085419698       26.9940609787       10.3575425372  MEMB      62              0.0000000000
      8261        68  POPC      H7S           -36.9045503367       25.5079737803       10.8043698989  MEMB      62              0.0000000000
      8262        68  POPC      C28           -36.5960794573       26.1083594224        8.7473819585  MEMB      62              0.0000000000
      8263        68  POPC      H8R           -37.2247108312       25.2342441944        8.4738457333  MEMB      62              0.0000000000
      8264        68  POPC      H8S           -35.5400218163       25.7784719707        8.6385676862  MEMB      62              0.0000000000
      8265        68  POPC      C29           -36.9470160939       27.2511891070        7.8297491988  MEMB      62              0.0000000000
      8266        68  POPC      H91           -37.9793964927       27.6168576474        7.9405203714  MEMB      62              0.0000000000
      8267        68  POPC      C210          -36.1583297439       27.8313078469        6.9094948831  MEMB      62              0.0000000000
      8268        68  POPC      H101          -36.5751914304       28.6454669102        6.2962761213  MEMB      62              0.0000000000
      8269        68  POPC      C211          -34.7337967490       27.4805772182        6.5727411402  MEMB      62              0.0000000000
      8270        68  POPC      H11R          -34.7824672264       26.8301294055        5.6817347651  MEMB      62              0.0000000000
      8271        68  POPC      H11S          -34.2399716044       26.8820354244        7.3707191744  MEMB      62              0.0000000000
      8272        68  POPC      C212          -33.8472203050       28.7204550367        6.3106470207  MEMB      62              0.0000000000
      8273        68  POPC      H12R          -33.2694513756       28.9235591131        7.2390158616  MEMB      62              0.0000000000
      8274        68  POPC      H12S          -34.4713945489       29.6269089077        6.1691268381  MEMB      62              0.0000000000
      8275        68  POPC      C213          -32.8763882591       28.6450297677        5.1089063362  MEMB      62              0.0000000000
      8276        68  POPC      H13R          -31.8820125426       29.0332307151        5.4228147698  MEMB      62              0.0000000000
      8277        68  POPC      H13S          -33.2208341913       29.3286636606        4.3096095253  MEMB      62              0.0000000000
      8278        68  POPC      C214          -32.6917071668       27.2735507333        4.4488422394  MEMB      62              0.0000000000
      8279        68  POPC      H14R          -33.6531347093       26.9521369421        3.9870561745  MEMB      62              0.0000000000
      8280        68  POPC      H14S          -32.3960426902       26.5175990967        5.2083068822  MEMB      62              0.0000000000
      8281        68  POPC      C215          -31.6559600122       27.3272830074        3.3261780417  MEMB      62              0.0000000000
      8282        68  POPC      H15R          -30.6496645826       27.4917322552        3.7665106220  MEMB      62              0.0000000000
      8283        68  POPC      H15S          -31.8774583639       28.2047444042        2.6859679592  MEMB      62              0.0000000000
      8284        68  POPC      C216          -31.6582961840       26.0693461116        2.4529342642  MEMB      62              0.0000000000
      8285        68  POPC      H16R          -30.8447711417       26.1574783830        1.6977997290  MEMB      62              0.0000000000
      8286        68  POPC      H16S          -32.6196253928       25.9963533919        1.8958454045  MEMB      62              0.0000000000
      8287        68  POPC      C217          -31.4583239296       24.7925045747        3.2721207763  MEMB      62              0.0000000000
      8288        68  POPC      H17R          -32.4065859252       24.5377482539        3.7957598734  MEMB      62              0.0000000000
      8289        68  POPC      H17S          -30.6915168226       24.9697254088        4.0593817069  MEMB      62              0.0000000000
      8290        68  POPC      C218          -31.0142362944       23.6129335101        2.4206950393  MEMB      62              0.0000000000
      8291        68  POPC      H18R          -31.7943602623       23.3583083216        1.6717336897  MEMB      62              0.0000000000
      8292        68  POPC      H18S          -30.8487939408       22.7341804988        3.0755062997  MEMB      62              0.0000000000
      8293        68  POPC      H18T          -30.0644315902       23.8386375122        1.8901468950  MEMB      62              0.0000000000
      8294        68  POPC      C33           -28.2177261993       26.8656497943       14.0592551605  MEMB      62              0.0000000000
      8295        68  POPC      H3X           -27.1046157881       26.8684138365       14.0242982868  MEMB      62              0.0000000000
      8296        68  POPC      H3Y           -28.5513405598       27.6886125991       13.3969563355  MEMB      62              0.0000000000
      8297        68  POPC      C34           -28.6468470851       25.4817722772       13.5023742491  MEMB      62              0.0000000000
      8298        68  POPC      H4X           -29.7465022991       25.4421276816       13.5853800336  MEMB      62              0.0000000000
      8299        68  POPC      H4Y           -28.2375209834       24.6731000769       14.1463711094  MEMB      62              0.0000000000
      8300        68  POPC      C35           -28.4118374670       25.1115864807       12.0136961888  MEMB      62              0.0000000000
      8301        68  POPC      H5X           -27.5611116075       24.4027315885       11.9255458465  MEMB      62              0.0000000000
      8302        68  POPC      H5Y           -28.1601737075       26.0249099355       11.4348631861  MEMB      62              0.0000000000
      8303        68  POPC      C36           -29.7033272033       24.4591348253       11.4384694310  MEMB      62              0.0000000000
      8304        68  POPC      H6X           -30.4963753543       25.2005338863       11.5740960940  MEMB      62              0.0000000000
      8305        68  POPC      H6Y           -30.0268290387       23.6239663350       12.0812929977  MEMB      62              0.0000000000
      8306        68  POPC      C37           -29.7485284149       24.0590741567        9.9487328377  MEMB      62              0.0000000000
      8307        68  POPC      H7X           -29.0523570790       23.2232425611        9.7764725454  MEMB      62              0.0000000000
      8308        68  POPC      H7Y           -29.4054118230       24.9119108713        9.3246241619  MEMB      62              0.0000000000
      8309        68  POPC      C38           -31.1445383965       23.6026367490        9.4507947107  MEMB      62              0.0000000000
      8310        68  POPC      H8X           -31.9161977903       24.3301303632        9.7792315210  MEMB      62              0.0000000000
      8311        68  POPC      H8Y           -31.3904595392       22.6246318170        9.9192126854  MEMB      62              0.0000000000
      8312        68  POPC      C39           -31.2040558309       23.4649624700        7.9167217159  MEMB      62              0.0000000000
      8313        68  POPC      H9X           -30.3604925056       22.8159772379        7.5939796696  MEMB      62              0.0000000000
      8314        68  POPC      H9Y           -31.0461186889       24.4665935834        7.4606245698  MEMB      62              0.0000000000
      8315        68  POPC      C310          -32.5034664542       22.8817645795        7.3250531814  MEMB      62              0.0000000000
      8316        68  POPC      H10X          -32.7193225866       21.8799672406        7.7544716074  MEMB      62              0.0000000000
      8317        68  POPC      H10Y          -32.3164003582       22.7392113053        6.2340310206  MEMB      62              0.0000000000
      8318        68  POPC      C311          -33.7269573853       23.8009343283        7.4747183317  MEMB      62              0.0000000000
      8319        68  POPC      H11X          -33.3704016861       24.8109871647        7.7805829432  MEMB      62              0.0000000000
      8320        68  POPC      H11Y          -34.3860900167       23.4209073848        8.2849305258  MEMB      62              0.0000000000
      8321        68  POPC      C312          -34.5478672982       23.9849780938        6.1816877557  MEMB      62              0.0000000000
      8322        68  POPC      H12X          -33.9085393482       24.4579295739        5.4065622727  MEMB      62              0.0000000000
      8323        68  POPC      H12Y          -35.3798933431       24.6920337187        6.3993055434  MEMB      62              0.0000000000
      8324        68  POPC      C313          -35.1596320014       22.6928262707        5.6241239665  MEMB      62              0.0000000000
      8325        68  POPC      H13X          -35.6693111584       22.1831541819        6.4677639140  MEMB      62              0.0000000000
      8326        68  POPC      H13Y          -34.3580422303       22.0172472219        5.2568845879  MEMB      62              0.0000000000
      8327        68  POPC      C314          -36.2123878018       22.9296293782        4.5245052453  MEMB      62              0.0000000000
      8328        68  POPC      H14X          -37.0081045711       23.5936025065        4.9330228432  MEMB      62              0.0000000000
      8329        68  POPC      H14Y          -36.6886631130       21.9540448091        4.2767967137  MEMB      62              0.0000000000
      8330        68  POPC      C315          -35.6671884843       23.5440137533        3.2245453236  MEMB      62              0.0000000000
      8331        68  POPC      H15X          -35.1801883936       24.5197841030        3.4495810874  MEMB      62              0.0000000000
      8332        68  POPC      H15Y          -36.5305295442       23.7587645865        2.5518567008  MEMB      62              0.0000000000
      8333        68  POPC      C316          -34.6832014841       22.6420305905        2.4745754143  MEMB      62              0.0000000000
      8334        68  POPC      H16X          -33.7770827002       22.4560888520        3.0890173113  MEMB      62              0.0000000000
      8335        68  POPC      H16Y          -34.3612423188       23.1135032064        1.5216771581  MEMB      62              0.0000000000
      8336        68  POPC      H16Z          -35.1536594575       21.6643551618        2.2367372893  MEMB      62              0.0000000000
      8337        69  POPC      N             -29.5817032696       31.0678266276       18.0162880045  MEMB      63              0.0000000000
      8338        69  POPC      C12           -29.4937129594       29.7090665054       18.7063692621  MEMB      63              0.0000000000
      8339        69  POPC      H12A          -28.4475783188       29.4299570210       18.8202241309  MEMB      63              0.0000000000
      8340        69  POPC      H12B          -29.9389538319       28.9361855488       18.0908448775  MEMB      63              0.0000000000
      8341        69  POPC      C13           -28.7246027867       32.0576179165       18.7391619286  MEMB      63              0.0000000000
      8342        69  POPC      H13A          -28.8626281985       33.0718655580       18.3814553158  MEMB      63              0.0000000000
      8343        69  POPC      H13B          -29.0042175354       32.0528333525       19.7940564225  MEMB      63              0.0000000000
      8344        69  POPC      H13C          -27.6756618348       31.8006862102       18.6729197751  MEMB      63              0.0000000000
      8345        69  POPC      C14           -29.1390666986       30.9182920124       16.5997134122  MEMB      63              0.0000000000
      8346        69  POPC      H14A          -29.8241519664       30.2810484790       16.0496646749  MEMB      63              0.0000000000
      8347        69  POPC      H14B          -29.1630309177       31.8721937094       16.0820540687  MEMB      63              0.0000000000
      8348        69  POPC      H14C          -28.1422712849       30.5072763194       16.4928344387  MEMB      63              0.0000000000
      8349        69  POPC      C15           -30.9934416893       31.6052544964       18.0372333583  MEMB      63              0.0000000000
      8350        69  POPC      H15A          -31.3890841040       31.6294584631       19.0572782069  MEMB      63              0.0000000000
      8351        69  POPC      H15B          -31.6485216079       31.0240576348       17.4027314289  MEMB      63              0.0000000000
      8352        69  POPC      H15C          -31.0478486832       32.6307577507       17.6749464683  MEMB      63              0.0000000000
      8353        69  POPC      C11           -30.1254595851       29.5692894623       20.1006053041  MEMB      63              0.0000000000
      8354        69  POPC      H11A          -30.2486841517       28.4745122923       20.3105046578  MEMB      63              0.0000000000
      8355        69  POPC      H11B          -31.1555706972       29.9802008216       20.1332143862  MEMB      63              0.0000000000
      8356        69  POPC      P             -28.2173564962       29.3476662487       21.8097156990  MEMB      63              0.0000000000
      8357        69  POPC      O13           -28.9360683462       28.3311630738       22.6053280239  MEMB      63              0.0000000000
      8358        69  POPC      O14           -27.3029131603       30.2274960307       22.5740859256  MEMB      63              0.0000000000
      8359        69  POPC      O12           -29.3082799025       30.2395807618       21.0565941411  MEMB      63              0.0000000000
      8360        69  POPC      O11           -27.4577048944       28.5862159094       20.6218646272  MEMB      63              0.0000000000
      8361        69  POPC      C1            -27.4390452107       27.1391811414       20.6332507502  MEMB      63              0.0000000000
      8362        69  POPC      HA            -28.4704498776       26.7344742987       20.5102154968  MEMB      63              0.0000000000
      8363        69  POPC      HB            -27.0439554422       26.7504798218       21.6022111505  MEMB      63              0.0000000000
      8364        69  POPC      C2            -26.5558006792       26.5199790201       19.5015129593  MEMB      63              0.0000000000
      8365        69  POPC      HS            -25.5727219450       26.2374829585       19.9447015679  MEMB      63              0.0000000000
      8366        69  POPC      O21           -26.3683776779       27.4982961119       18.4647553948  MEMB      63              0.0000000000
      8367        69  POPC      C21           -25.4133138453       28.4029272860       18.7209203362  MEMB      63              0.0000000000
      8368        69  POPC      O22           -24.4783491983       28.2808781198       19.4934466929  MEMB      63              0.0000000000
      8369        69  POPC      C22           -25.6834842318       29.5810067879       17.7998146885  MEMB      63              0.0000000000
      8370        69  POPC      H2R           -26.7773526414       29.6730595805       17.6595822714  MEMB      63              0.0000000000
      8371        69  POPC      H2S           -25.2275894826       29.3390315294       16.8160939637  MEMB      63              0.0000000000
      8372        69  POPC      C3            -27.1452508286       25.1839987300       18.8859727559  MEMB      63              0.0000000000
      8373        69  POPC      HX            -27.0469330384       24.3810178288       19.6532463133  MEMB      63              0.0000000000
      8374        69  POPC      HY            -26.4333121738       24.9443694952       18.0617645775  MEMB      63              0.0000000000
      8375        69  POPC      O31           -28.5302198164       25.2142435255       18.4244554438  MEMB      63              0.0000000000
      8376        69  POPC      C31           -28.7947907056       24.2241886407       17.5210476603  MEMB      63              0.0000000000
      8377        69  POPC      O32           -27.9300529413       23.5850768720       16.9485335621  MEMB      63              0.0000000000
      8378        69  POPC      C32           -30.3091798064       24.0352416957       17.2839109137  MEMB      63              0.0000000000
      8379        69  POPC      H2X           -30.8402386385       24.8038755310       17.8705911354  MEMB      63              0.0000000000
      8380        69  POPC      H2Y           -30.5937550085       23.0387113129       17.6782596371  MEMB      63              0.0000000000
      8381        69  POPC      C23           -25.1314668096       30.9357219963       18.2896375182  MEMB      63              0.0000000000
      8382        69  POPC      H3R           -24.1140353208       30.7995908797       18.7274436857  MEMB      63              0.0000000000
      8383        69  POPC      H3S           -25.7890234677       31.3665420582       19.0734914321  MEMB      63              0.0000000000
      8384        69  POPC      C24           -24.9635351268       31.9204909437       17.1227703930  MEMB      63              0.0000000000
      8385        69  POPC      H4R           -24.0684081264       31.5615015127       16.5668946596  MEMB      63              0.0000000000
      8386        69  POPC      H4S           -24.7018644550       32.9377583818       17.4860547529  MEMB      63              0.0000000000
      8387        69  POPC      C25           -26.1406683456       32.0053124739       16.1415580930  MEMB      63              0.0000000000
      8388        69  POPC      H5R           -26.9099035201       32.6805191473       16.5690845876  MEMB      63              0.0000000000
      8389        69  POPC      H5S           -26.5786766770       31.0037021563       15.9608819641  MEMB      63              0.0000000000
      8390        69  POPC      C26           -25.7426462321       32.4949906452       14.7495692384  MEMB      63              0.0000000000
      8391        69  POPC      H6R           -25.1456952594       33.4301648955       14.8477574447  MEMB      63              0.0000000000
      8392        69  POPC      H6S           -26.6662754090       32.7317788857       14.1727388371  MEMB      63              0.0000000000
      8393        69  POPC      C27           -24.9224662843       31.4467793306       13.9792779490  MEMB      63              0.0000000000
      8394        69  POPC      H7R           -25.5377231683       30.5441039396       13.7813883871  MEMB      63              0.0000000000
      8395        69  POPC      H7S           -24.0484549858       31.1307054434       14.5936073108  MEMB      63              0.0000000000
      8396        69  POPC      C28           -24.3459120612       32.0086900582       12.6779115687  MEMB      63              0.0000000000
      8397        69  POPC      H8R           -23.7009019693       31.2411968483       12.1940292839  MEMB      63              0.0000000000
      8398        69  POPC      H8S           -23.6777061683       32.8394536150       12.9842731823  MEMB      63              0.0000000000
      8399        69  POPC      C29           -25.4281447374       32.4777122217       11.7484506467  MEMB      63              0.0000000000
      8400        69  POPC      H91           -25.6111909372       33.5651326182       11.7305469023  MEMB      63              0.0000000000
      8401        69  POPC      C210          -26.1762893172       31.6623816065       10.9918476730  MEMB      63              0.0000000000
      8402        69  POPC      H101          -26.9158293438       32.1185538999       10.3202658921  MEMB      63              0.0000000000
      8403        69  POPC      C211          -26.0681026414       30.1548532228       10.9303208344  MEMB      63              0.0000000000
      8404        69  POPC      H11R          -26.8071173430       29.6959591862       11.6245240615  MEMB      63              0.0000000000
      8405        69  POPC      H11S          -25.0605764270       29.8070467469       11.2532442447  MEMB      63              0.0000000000
      8406        69  POPC      C212          -26.3237688864       29.5643652677        9.5274406189  MEMB      63              0.0000000000
      8407        69  POPC      H12R          -27.4065042201       29.6288762840        9.2933353152  MEMB      63              0.0000000000
      8408        69  POPC      H12S          -26.0792459819       28.4788886918        9.5312559343  MEMB      63              0.0000000000
      8409        69  POPC      C213          -25.5563323608       30.2528652808        8.3935060141  MEMB      63              0.0000000000
      8410        69  POPC      H13R          -24.4999223596       29.9080269054        8.3866115593  MEMB      63              0.0000000000
      8411        69  POPC      H13S          -25.5347536981       31.3548957086        8.5351287703  MEMB      63              0.0000000000
      8412        69  POPC      C214          -26.2056556841       29.9945404680        7.0311840601  MEMB      63              0.0000000000
      8413        69  POPC      H14R          -27.2826741041       30.2704132390        7.0516689714  MEMB      63              0.0000000000
      8414        69  POPC      H14S          -26.1467326992       28.9028481791        6.8231026873  MEMB      63              0.0000000000
      8415        69  POPC      C215          -25.5026572223       30.7834970216        5.9244146794  MEMB      63              0.0000000000
      8416        69  POPC      H15R          -24.5597829578       31.1905526895        6.3531222513  MEMB      63              0.0000000000
      8417        69  POPC      H15S          -26.1166827698       31.6538831394        5.6045512720  MEMB      63              0.0000000000
      8418        69  POPC      C216          -25.1760549365       29.8895047810        4.7295941560  MEMB      63              0.0000000000
      8419        69  POPC      H16R          -26.1029613474       29.6933058246        4.1473148811  MEMB      63              0.0000000000
      8420        69  POPC      H16S          -24.7977289712       28.9133223258        5.1139065716  MEMB      63              0.0000000000
      8421        69  POPC      C217          -24.1013958522       30.4604310329        3.8098958378  MEMB      63              0.0000000000
      8422        69  POPC      H17R          -24.4805334163       31.3869266799        3.3222447252  MEMB      63              0.0000000000
      8423        69  POPC      H17S          -23.9257870746       29.6965583207        3.0163931940  MEMB      63              0.0000000000
      8424        69  POPC      C218          -22.7803435060       30.7563059915        4.5214093194  MEMB      63              0.0000000000
      8425        69  POPC      H18R          -22.6255078103       30.0457604485        5.3595447407  MEMB      63              0.0000000000
      8426        69  POPC      H18S          -22.7857795101       31.7793871660        4.9525755401  MEMB      63              0.0000000000
      8427        69  POPC      H18T          -21.9224276331       30.6622301392        3.8225718805  MEMB      63              0.0000000000
      8428        69  POPC      C33           -30.6895189103       24.1631209794       15.7812985967  MEMB      63              0.0000000000
      8429        69  POPC      H3X           -30.2804652231       23.3057583455       15.2010793165  MEMB      63              0.0000000000
      8430        69  POPC      H3Y           -30.1967037370       25.0846188625       15.4393298671  MEMB      63              0.0000000000
      8431        69  POPC      C34           -32.1802378854       24.3695857430       15.4507407994  MEMB      63              0.0000000000
      8432        69  POPC      H4X           -32.5869693502       25.1487663293       16.1265685048  MEMB      63              0.0000000000
      8433        69  POPC      H4Y           -32.6947886538       23.4095181820       15.6657923513  MEMB      63              0.0000000000
      8434        69  POPC      C35           -32.4819684667       24.7870354811       13.9812023228  MEMB      63              0.0000000000
      8435        69  POPC      H5X           -33.5422374050       24.5401578250       13.7561411579  MEMB      63              0.0000000000
      8436        69  POPC      H5Y           -31.8497334503       24.1800326137       13.2993559576  MEMB      63              0.0000000000
      8437        69  POPC      C36           -32.2929684504       26.2951093088       13.6797832693  MEMB      63              0.0000000000
      8438        69  POPC      H6X           -31.3052843218       26.5786646053       14.0707437339  MEMB      63              0.0000000000
      8439        69  POPC      H6Y           -33.0402447333       26.8922310530       14.2445930422  MEMB      63              0.0000000000
      8440        69  POPC      C37           -32.3459206304       26.7243580280       12.1863187009  MEMB      63              0.0000000000
      8441        69  POPC      H7X           -33.3075577883       27.2441455570       12.0252344070  MEMB      63              0.0000000000
      8442        69  POPC      H7Y           -32.3577523951       25.8343675005       11.5296757910  MEMB      63              0.0000000000
      8443        69  POPC      C38           -31.2352961457       27.7261817127       11.7690953500  MEMB      63              0.0000000000
      8444        69  POPC      H8X           -30.4276788440       27.6809676518       12.5268139477  MEMB      63              0.0000000000
      8445        69  POPC      H8Y           -31.6764121451       28.7420883666       11.8561797634  MEMB      63              0.0000000000
      8446        69  POPC      C39           -30.5275470945       27.5663870617       10.3905975406  MEMB      63              0.0000000000
      8447        69  POPC      H9X           -29.8199795386       26.7273216752       10.3972280056  MEMB      63              0.0000000000
      8448        69  POPC      H9Y           -29.8619507854       28.4401938724       10.2345717227  MEMB      63              0.0000000000
      8449        69  POPC      C310          -31.4146532868       27.3864915649        9.1531348796  MEMB      63              0.0000000000
      8450        69  POPC      H10X          -32.3767389721       27.9219133187        9.3244961954  MEMB      63              0.0000000000
      8451        69  POPC      H10Y          -31.6632161991       26.3130639785        9.0268978574  MEMB      63              0.0000000000
      8452        69  POPC      C311          -30.8133716051       27.9240517451        7.8333308977  MEMB      63              0.0000000000
      8453        69  POPC      H11X          -30.9132405883       29.0327012637        7.8726164718  MEMB      63              0.0000000000
      8454        69  POPC      H11Y          -31.4554040233       27.5563847250        7.0075531747  MEMB      63              0.0000000000
      8455        69  POPC      C312          -29.3459727087       27.6097645761        7.4587155834  MEMB      63              0.0000000000
      8456        69  POPC      H12X          -28.7117783930       27.4772699794        8.3577988266  MEMB      63              0.0000000000
      8457        69  POPC      H12Y          -28.9611467999       28.5081478518        6.9194128612  MEMB      63              0.0000000000
      8458        69  POPC      C313          -29.1712681290       26.4272469628        6.4840016333  MEMB      63              0.0000000000
      8459        69  POPC      H13X          -29.9769528981       26.4370464620        5.7189561390  MEMB      63              0.0000000000
      8460        69  POPC      H13Y          -29.2700386970       25.4853502632        7.0647760613  MEMB      63              0.0000000000
      8461        69  POPC      C314          -27.8104638588       26.4011657502        5.7625691621  MEMB      63              0.0000000000
      8462        69  POPC      H14X          -27.5993121782       25.3571247478        5.4519883379  MEMB      63              0.0000000000
      8463        69  POPC      H14Y          -27.0172321430       26.7081393614        6.4787995825  MEMB      63              0.0000000000
      8464        69  POPC      C315          -27.7282166628       27.2532003619        4.4849599325  MEMB      63              0.0000000000
      8465        69  POPC      H15X          -26.6872306020       27.6385882678        4.4037772546  MEMB      63              0.0000000000
      8466        69  POPC      H15Y          -28.4107739172       28.1279292241        4.5661010023  MEMB      63              0.0000000000
      8467        69  POPC      C316          -28.0103521247       26.4689869297        3.1984152613  MEMB      63              0.0000000000
      8468        69  POPC      H16X          -27.9362999825       27.1263025470        2.3056247898  MEMB      63              0.0000000000
      8469        69  POPC      H16Y          -29.0241048489       26.0297627599        3.2240403205  MEMB      63              0.0000000000
      8470        69  POPC      H16Z          -27.2869931473       25.6353083828        3.0855588067  MEMB      63              0.0000000000
      8471        70  POPS      N             -32.6244153868      -28.0713022824       21.0903942414  MEMB      64              0.0000000000
      8472        70  POPS      HN1           -32.9697732659      -28.8185129545       21.7427221386  MEMB      64              0.0000000000
      8473        70  POPS      HN2           -32.8257385530      -27.0971316563       21.4032754827  MEMB      64              0.0000000000
      8474        70  POPS      HN3           -32.9577486873      -28.3057993630       20.1230039087  MEMB      64              0.0000000000
      8475        70  POPS      C12           -31.1592330617      -28.1420466373       20.9192320349  MEMB      64              0.0000000000
      8476        70  POPS      H12A          -30.7971222397      -29.0150628364       21.4410152162  MEMB      64              0.0000000000
      8477        70  POPS      C13           -30.4685842692      -26.9100307892       21.5369092867  MEMB      64              0.0000000000
      8478        70  POPS      O13A          -31.1264041654      -26.2279949162       22.3829147126  MEMB      64              0.0000000000
      8479        70  POPS      O13B          -29.2835091392      -26.6638051018       21.1994379253  MEMB      64              0.0000000000
      8480        70  POPS      C11           -30.9610991276      -28.3381498537       19.3997405610  MEMB      64              0.0000000000
      8481        70  POPS      H11A          -29.9048652331      -28.6427410163       19.2140444964  MEMB      64              0.0000000000
      8482        70  POPS      H11B          -31.1313736472      -27.3645687144       18.8742861069  MEMB      64              0.0000000000
      8483        70  POPS      P             -32.1147550404      -29.5575498879       17.4150855544  MEMB      64              0.0000000000
      8484        70  POPS      O13           -32.7785922634      -28.3487051136       16.9000517621  MEMB      64              0.0000000000
      8485        70  POPS      O14           -32.7894694508      -30.8563317053       17.2378425846  MEMB      64              0.0000000000
      8486        70  POPS      O12           -31.8825418292      -29.3617091458       18.9647544017  MEMB      64              0.0000000000
      8487        70  POPS      O11           -30.6161859557      -29.6899281558       16.9482885806  MEMB      64              0.0000000000
      8488        70  POPS      C1            -29.8410490964      -30.8118357528       17.3979227855  MEMB      64              0.0000000000
      8489        70  POPS      HA            -30.3651065689      -31.4333040277       18.1668331572  MEMB      64              0.0000000000
      8490        70  POPS      HB            -28.9349543327      -30.4320801778       17.9097082056  MEMB      64              0.0000000000
      8491        70  POPS      C2            -29.4604732740      -31.7693815412       16.2260176073  MEMB      64              0.0000000000
      8492        70  POPS      HS            -28.8957838033      -32.6157212013       16.6594374550  MEMB      64              0.0000000000
      8493        70  POPS      O21           -28.6641410902      -31.1796588623       15.2058756259  MEMB      64              0.0000000000
      8494        70  POPS      C21           -27.6937526941      -30.3590840236       15.4992322648  MEMB      64              0.0000000000
      8495        70  POPS      O22           -27.0400271301      -30.3228913145       16.5315768644  MEMB      64              0.0000000000
      8496        70  POPS      C22           -27.4893282060      -29.4576034585       14.2848318225  MEMB      64              0.0000000000
      8497        70  POPS      H2R           -27.7272904354      -30.0387360063       13.3735981545  MEMB      64              0.0000000000
      8498        70  POPS      H2S           -26.4217701106      -29.2151265481       14.2270880319  MEMB      64              0.0000000000
      8499        70  POPS      C3            -30.7115859930      -32.3506502006       15.5151445174  MEMB      64              0.0000000000
      8500        70  POPS      HX            -31.2200921965      -31.5180003000       14.9700284177  MEMB      64              0.0000000000
      8501        70  POPS      HY            -31.4422381923      -32.6745168559       16.2801198153  MEMB      64              0.0000000000
      8502        70  POPS      O31           -30.3786121730      -33.4859285595       14.6732694009  MEMB      64              0.0000000000
      8503        70  POPS      C31           -30.1153605235      -33.1448077537       13.4015955886  MEMB      64              0.0000000000
      8504        70  POPS      O32           -30.1108163908      -32.0114432678       12.9670090167  MEMB      64              0.0000000000
      8505        70  POPS      C32           -29.9350647149      -34.3808801229       12.5251169654  MEMB      64              0.0000000000
      8506        70  POPS      H2X           -30.0135831105      -35.3117878151       13.1206426529  MEMB      64              0.0000000000
      8507        70  POPS      H2Y           -28.9227381024      -34.3101889858       12.0805388764  MEMB      64              0.0000000000
      8508        70  POPS      C23           -28.2512089226      -28.1141056351       14.3601309615  MEMB      64              0.0000000000
      8509        70  POPS      H3R           -27.6157472502      -27.3215761567       13.9010083590  MEMB      64              0.0000000000
      8510        70  POPS      H3S           -28.4229304602      -27.8191295249       15.4221869842  MEMB      64              0.0000000000
      8511        70  POPS      C24           -29.5760942333      -28.1359205478       13.5907005780  MEMB      64              0.0000000000
      8512        70  POPS      H4R           -30.1440688859      -27.2007152266       13.7982472122  MEMB      64              0.0000000000
      8513        70  POPS      H4S           -30.1815132333      -28.9833293785       13.9914712001  MEMB      64              0.0000000000
      8514        70  POPS      C25           -29.3957373402      -28.2992833330       12.0691803813  MEMB      64              0.0000000000
      8515        70  POPS      H5R           -28.6057536058      -29.0507353358       11.8601017199  MEMB      64              0.0000000000
      8516        70  POPS      H5S           -29.0713921667      -27.3444911532       11.6055909794  MEMB      64              0.0000000000
      8517        70  POPS      C26           -30.6740534528      -28.8247298216       11.4191921363  MEMB      64              0.0000000000
      8518        70  POPS      H6R           -31.4660514733      -28.0449084529       11.4490763146  MEMB      64              0.0000000000
      8519        70  POPS      H6S           -31.0299521942      -29.6806463073       12.0441883509  MEMB      64              0.0000000000
      8520        70  POPS      C27           -30.4623635205      -29.3582839083        9.9972462487  MEMB      64              0.0000000000
      8521        70  POPS      H7R           -29.5036216149      -29.9261643988        9.9503525407  MEMB      64              0.0000000000
      8522        70  POPS      H7S           -30.3747074549      -28.5102340637        9.2920752333  MEMB      64              0.0000000000
      8523        70  POPS      C28           -31.6031071040      -30.3308651680        9.6486417325  MEMB      64              0.0000000000
      8524        70  POPS      H8R           -32.5517895855      -29.9326544926       10.0761943761  MEMB      64              0.0000000000
      8525        70  POPS      H8S           -31.3418916203      -31.2501192717       10.2131384389  MEMB      64              0.0000000000
      8526        70  POPS      C29           -31.8487670494      -30.7350844366        8.2244383483  MEMB      64              0.0000000000
      8527        70  POPS      H91           -31.8204878144      -31.8175216779        8.0339068720  MEMB      64              0.0000000000
      8528        70  POPS      C210          -32.1204025131      -29.9246242604        7.1986264272  MEMB      64              0.0000000000
      8529        70  POPS      H101          -32.3098529820      -30.3816182784        6.2153408465  MEMB      64              0.0000000000
      8530        70  POPS      C211          -32.2393031963      -28.4256282896        7.2375082724  MEMB      64              0.0000000000
      8531        70  POPS      H11R          -32.1144204486      -28.0039480087        8.2587327167  MEMB      64              0.0000000000
      8532        70  POPS      H11S          -33.2538514815      -28.1101449103        6.9240426174  MEMB      64              0.0000000000
      8533        70  POPS      C212          -31.2337226441      -27.7569552938        6.2898796332  MEMB      64              0.0000000000
      8534        70  POPS      H12R          -30.2382450551      -27.6796581870        6.7831363267  MEMB      64              0.0000000000
      8535        70  POPS      H12S          -31.6246046757      -26.7310914302        6.1174821522  MEMB      64              0.0000000000
      8536        70  POPS      C213          -31.0533285488      -28.4391534603        4.9229008826  MEMB      64              0.0000000000
      8537        70  POPS      H13R          -32.0510467045      -28.6320820163        4.4708771554  MEMB      64              0.0000000000
      8538        70  POPS      H13S          -30.5371276211      -29.4171082095        5.0510274465  MEMB      64              0.0000000000
      8539        70  POPS      C214          -30.2370055475      -27.5630339529        3.9717243223  MEMB      64              0.0000000000
      8540        70  POPS      H14R          -29.2351079586      -27.3718006219        4.4187534956  MEMB      64              0.0000000000
      8541        70  POPS      H14S          -30.7843441351      -26.6040399670        3.8694766109  MEMB      64              0.0000000000
      8542        70  POPS      C215          -30.0917684361      -28.1339668822        2.5647143763  MEMB      64              0.0000000000
      8543        70  POPS      H15R          -30.0690162373      -29.2436622397        2.6218713151  MEMB      64              0.0000000000
      8544        70  POPS      H15S          -29.1322478739      -27.7944856919        2.1112457575  MEMB      64              0.0000000000
      8545        70  POPS      C216          -31.2459183479      -27.6900707849        1.6586662343  MEMB      64              0.0000000000
      8546        70  POPS      H16R          -31.1073456651      -26.6239945093        1.3747632319  MEMB      64              0.0000000000
      8547        70  POPS      H16S          -32.2076203869      -27.7700115606        2.2126975720  MEMB      64              0.0000000000
      8548        70  POPS      C217          -31.3070879320      -28.5741434628        0.4193403011  MEMB      64              0.0000000000
      8549        70  POPS      H17R          -31.3768605273      -29.6313290081        0.7659450654  MEMB      64              0.0000000000
      8550        70  POPS      H17S          -30.3387782789      -28.4585418484       -0.1127611848  MEMB      64              0.0000000000
      8551        70  POPS      C218          -32.4592142575      -28.3005445151       -0.5464732680  MEMB      64              0.0000000000
      8552        70  POPS      H18R          -32.6304591596      -29.1829725111       -1.1983200342  MEMB      64              0.0000000000
      8553        70  POPS      H18S          -32.2180448345      -27.4452693578       -1.2088159967  MEMB      64              0.0000000000
      8554        70  POPS      H18T          -33.4004878465      -28.0847889458        0.0008315767  MEMB      64              0.0000000000
      8555        70  POPS      C33           -31.0203443127      -34.3186930052       11.4266383844  MEMB      64              0.0000000000
      8556        70  POPS      H3X           -31.0812269450      -33.2741812568       11.0435567594  MEMB      64              0.0000000000
      8557        70  POPS      H3Y           -31.9975942879      -34.5795838658       11.8893389045  MEMB      64              0.0000000000
      8558        70  POPS      C34           -30.8412257782      -35.1912183596       10.1824845635  MEMB      64              0.0000000000
      8559        70  POPS      H4X           -31.6679628741      -34.9801964736        9.4682376982  MEMB      64              0.0000000000
      8560        70  POPS      H4Y           -30.9563650386      -36.2416210031       10.4728811576  MEMB      64              0.0000000000
      8561        70  POPS      C35           -29.5171920263      -34.9767453574        9.4560845134  MEMB      64              0.0000000000
      8562        70  POPS      H5X           -29.5200030355      -35.5794928609        8.5196703987  MEMB      64              0.0000000000
      8563        70  POPS      H5Y           -28.7023753213      -35.3491796194       10.1064897234  MEMB      64              0.0000000000
      8564        70  POPS      C36           -29.2743305837      -33.5053966135        9.1189120797  MEMB      64              0.0000000000
      8565        70  POPS      H6X           -28.8798909841      -32.9588381057       10.0050714394  MEMB      64              0.0000000000
      8566        70  POPS      H6Y           -30.2561914072      -33.0491588847        8.8630140236  MEMB      64              0.0000000000
      8567        70  POPS      C37           -28.3537419422      -33.3068569216        7.9162078139  MEMB      64              0.0000000000
      8568        70  POPS      H7X           -28.8037218682      -33.8695253190        7.0703962728  MEMB      64              0.0000000000
      8569        70  POPS      H7Y           -27.3484331910      -33.7364752658        8.1052517316  MEMB      64              0.0000000000
      8570        70  POPS      C38           -28.2253929721      -31.8176029694        7.5794168933  MEMB      64              0.0000000000
      8571        70  POPS      H8X           -27.5487913336      -31.3517757305        8.3259743650  MEMB      64              0.0000000000
      8572        70  POPS      H8Y           -29.2241296754      -31.3435138945        7.7111110043  MEMB      64              0.0000000000
      8573        70  POPS      C39           -27.7685678002      -31.5066685417        6.1485573132  MEMB      64              0.0000000000
      8574        70  POPS      H9X           -26.6933833695      -31.7585813057        6.0174860332  MEMB      64              0.0000000000
      8575        70  POPS      H9Y           -27.8952754823      -30.4115698635        5.9885529991  MEMB      64              0.0000000000
      8576        70  POPS      C310          -28.6010095240      -32.2524572515        5.1011073238  MEMB      64              0.0000000000
      8577        70  POPS      H10X          -29.6638039264      -32.2601046756        5.4357371907  MEMB      64              0.0000000000
      8578        70  POPS      H10Y          -28.2420994954      -33.3034339155        5.0713798518  MEMB      64              0.0000000000
      8579        70  POPS      C311          -28.5487778868      -31.6323889124        3.7006552839  MEMB      64              0.0000000000
      8580        70  POPS      H11X          -27.5042242447      -31.6408323067        3.3211658496  MEMB      64              0.0000000000
      8581        70  POPS      H11Y          -28.8669620455      -30.5707499890        3.7854220196  MEMB      64              0.0000000000
      8582        70  POPS      C312          -29.4682419588      -32.3723655323        2.7168698535  MEMB      64              0.0000000000
      8583        70  POPS      H12X          -29.5603027643      -31.7884531324        1.7746694848  MEMB      64              0.0000000000
      8584        70  POPS      H12Y          -30.4839713475      -32.4450868943        3.1670065370  MEMB      64              0.0000000000
      8585        70  POPS      C313          -28.9397761624      -33.7761450334        2.3926536433  MEMB      64              0.0000000000
      8586        70  POPS      H13X          -28.6036538034      -34.2783862912        3.3249942509  MEMB      64              0.0000000000
      8587        70  POPS      H13Y          -28.0486294218      -33.6863061021        1.7332551107  MEMB      64              0.0000000000
      8588        70  POPS      C314          -29.9520882124      -34.7177240547        1.7390747645  MEMB      64              0.0000000000
      8589        70  POPS      H14X          -30.1948923918      -34.3631940769        0.7167361183  MEMB      64              0.0000000000
      8590        70  POPS      H14Y          -30.8994466045      -34.7332500666        2.3238684931  MEMB      64              0.0000000000
      8591        70  POPS      C315          -29.3812503261      -36.1384463408        1.6680284111  MEMB      64              0.0000000000
      8592        70  POPS      H15X          -29.3775690446      -36.5716595547        2.6955039507  MEMB      64              0.0000000000
      8593        70  POPS      H15Y          -28.3229578537      -36.0857927562        1.3226092524  MEMB      64              0.0000000000
      8594        70  POPS      C316          -30.1597868665      -37.0527738201        0.7313867197  MEMB      64              0.0000000000
      8595        70  POPS      H16X          -30.1007721175      -36.6875944942       -0.3141928675  MEMB      64              0.0000000000
      8596        70  POPS      H16Y          -31.2297685780      -37.0690877517        1.0210329309  MEMB      64              0.0000000000
      8597        70  POPS      H16Z          -29.7653790713      -38.0902163959        0.7698713967  MEMB      64              0.0000000000
      8598        71  POPC      N              30.3217096458      -33.7172188620       21.2655529810  MEMB      65              0.0000000000
      8599        71  POPC      C12            29.3024483777      -32.5907810768       21.2717445882  MEMB      65              0.0000000000
      8600        71  POPC      H12A           29.8505442283      -31.6714549797       21.0626088140  MEMB      65              0.0000000000
      8601        71  POPC      H12B           28.8797212048      -32.5045979575       22.2685850760  MEMB      65              0.0000000000
      8602        71  POPC      C13            31.1204970945      -33.6331538915       22.5065874379  MEMB      65              0.0000000000
      8603        71  POPC      H13A           30.4552494838      -33.7072840807       23.3704620247  MEMB      65              0.0000000000
      8604        71  POPC      H13B           31.8439303186      -34.4316629534       22.5556590299  MEMB      65              0.0000000000
      8605        71  POPC      H13C           31.6205596875      -32.6795856129       22.5594278595  MEMB      65              0.0000000000
      8606        71  POPC      C14            29.6046324926      -35.0251903624       21.1889458095  MEMB      65              0.0000000000
      8607        71  POPC      H14A           29.0341032383      -34.9917740651       20.2556879190  MEMB      65              0.0000000000
      8608        71  POPC      H14B           30.2438350651      -35.8932065334       21.1643024816  MEMB      65              0.0000000000
      8609        71  POPC      H14C           28.8570315774      -35.1134681524       21.9770671208  MEMB      65              0.0000000000
      8610        71  POPC      C15            31.1952599363      -33.5129285123       20.0554002124  MEMB      65              0.0000000000
      8611        71  POPC      H15A           31.6771199543      -32.5404706389       20.0762907729  MEMB      65              0.0000000000
      8612        71  POPC      H15B           30.5467346782      -33.5079956604       19.1699287932  MEMB      65              0.0000000000
      8613        71  POPC      H15C           31.9395118587      -34.2884451717       19.9456151690  MEMB      65              0.0000000000
      8614        71  POPC      C11            28.1398380765      -32.6703515319       20.2550307537  MEMB      65              0.0000000000
      8615        71  POPC      H11A           27.9088299441      -31.6295584705       19.9225007400  MEMB      65              0.0000000000
      8616        71  POPC      H11B           27.2270876737      -33.0703100021       20.7566643538  MEMB      65              0.0000000000
      8617        71  POPC      P              27.4889844061      -33.5637296044       17.9262136481  MEMB      65              0.0000000000
      8618        71  POPC      O13            26.4064495583      -32.6138098437       18.2490105788  MEMB      65              0.0000000000
      8619        71  POPC      O14            27.1478348626      -34.9607063734       17.6326394443  MEMB      65              0.0000000000
      8620        71  POPC      O12            28.4790550197      -33.4836457650       19.1374624858  MEMB      65              0.0000000000
      8621        71  POPC      O11            28.3496644094      -32.9037336645       16.7889692844  MEMB      65              0.0000000000
      8622        71  POPC      C1             28.4900680170      -31.4724446636       16.8969275453  MEMB      65              0.0000000000
      8623        71  POPC      HA             29.1708319959      -31.2117367282       17.7406243734  MEMB      65              0.0000000000
      8624        71  POPC      HB             27.5210689164      -30.9394248927       17.0374619213  MEMB      65              0.0000000000
      8625        71  POPC      C2             29.0898236976      -30.9477929769       15.5983346896  MEMB      65              0.0000000000
      8626        71  POPC      HS             29.4651025976      -29.9194336844       15.7681234707  MEMB      65              0.0000000000
      8627        71  POPC      O21            28.0508622295      -30.9723585563       14.5978483183  MEMB      65              0.0000000000
      8628        71  POPC      C21            28.2091802539      -30.1598996446       13.5757054109  MEMB      65              0.0000000000
      8629        71  POPC      O22            29.0380376970      -29.2757341162       13.4747286239  MEMB      65              0.0000000000
      8630        71  POPC      C22            27.3621974437      -30.6489474918       12.4158110634  MEMB      65              0.0000000000
      8631        71  POPC      H2R            26.3684554366      -30.1663827140       12.4638506772  MEMB      65              0.0000000000
      8632        71  POPC      H2S            27.2479819744      -31.7499624640       12.5035468555  MEMB      65              0.0000000000
      8633        71  POPC      C3             30.2945852056      -31.8726123014       15.2907388675  MEMB      65              0.0000000000
      8634        71  POPC      HX             29.9449041390      -32.9196631928       15.1219315593  MEMB      65              0.0000000000
      8635        71  POPC      HY             30.9279472919      -31.9066471554       16.2062060184  MEMB      65              0.0000000000
      8636        71  POPC      O31            31.0966995735      -31.3598211578       14.2288368306  MEMB      65              0.0000000000
      8637        71  POPC      C31            30.7565242128      -31.8245113864       13.0492705697  MEMB      65              0.0000000000
      8638        71  POPC      O32            29.8563493881      -32.6144727615       12.8201296133  MEMB      65              0.0000000000
      8639        71  POPC      C32            31.7313438723      -31.2863878207       12.0165994254  MEMB      65              0.0000000000
      8640        71  POPC      H2X            32.2702799072      -30.4217205432       12.4632890390  MEMB      65              0.0000000000
      8641        71  POPC      H2Y            31.1901871523      -30.9233917290       11.1255900523  MEMB      65              0.0000000000
      8642        71  POPC      C23            28.1224357157      -30.3090151591       11.1241614583  MEMB      65              0.0000000000
      8643        71  POPC      H3R            29.2157749993      -30.2713615977       11.3319247858  MEMB      65              0.0000000000
      8644        71  POPC      H3S            27.8414319843      -29.2903103847       10.7903435661  MEMB      65              0.0000000000
      8645        71  POPC      C24            28.0137674151      -31.3517027340       10.0110403882  MEMB      65              0.0000000000
      8646        71  POPC      H4R            27.0006304626      -31.3666907491        9.5677548613  MEMB      65              0.0000000000
      8647        71  POPC      H4S            28.1870821142      -32.3640571135       10.4468916949  MEMB      65              0.0000000000
      8648        71  POPC      C25            29.0661317947      -31.1152727349        8.9171450756  MEMB      65              0.0000000000
      8649        71  POPC      H5R            28.7339932837      -31.5850724873        7.9658070296  MEMB      65              0.0000000000
      8650        71  POPC      H5S            29.9886296014      -31.6391483546        9.2478303694  MEMB      65              0.0000000000
      8651        71  POPC      C26            29.4601386739      -29.6466987463        8.6821650174  MEMB      65              0.0000000000
      8652        71  POPC      H6R            29.8209173589      -29.1877519023        9.6305275848  MEMB      65              0.0000000000
      8653        71  POPC      H6S            28.5963687194      -29.0520671624        8.3229202463  MEMB      65              0.0000000000
      8654        71  POPC      C27            30.6213114587      -29.5200974355        7.6965646743  MEMB      65              0.0000000000
      8655        71  POPC      H7R            31.1814092476      -30.4842694472        7.6882238584  MEMB      65              0.0000000000
      8656        71  POPC      H7S            31.3187785357      -28.7369959681        8.0726814263  MEMB      65              0.0000000000
      8657        71  POPC      C28            30.1508402993      -29.1415041722        6.2866249898  MEMB      65              0.0000000000
      8658        71  POPC      H8R            29.8054637506      -28.0960081321        6.2758141476  MEMB      65              0.0000000000
      8659        71  POPC      H8S            29.2765497031      -29.7717277860        6.0092863795  MEMB      65              0.0000000000
      8660        71  POPC      C29            31.2967716150      -29.3047694852        5.3370470820  MEMB      65              0.0000000000
      8661        71  POPC      H91            31.9496171190      -28.4297089272        5.1920162235  MEMB      65              0.0000000000
      8662        71  POPC      C210           31.5395468391      -30.4296627114        4.6665463750  MEMB      65              0.0000000000
      8663        71  POPC      H101           32.4575769853      -30.4933589690        4.0674688886  MEMB      65              0.0000000000
      8664        71  POPC      C211           30.7048650157      -31.6768831716        4.7600274423  MEMB      65              0.0000000000
      8665        71  POPC      H11R           29.9027398730      -31.6185836541        3.9888977246  MEMB      65              0.0000000000
      8666        71  POPC      H11S           30.1813714079      -31.7658166268        5.7397323547  MEMB      65              0.0000000000
      8667        71  POPC      C212           31.4942054379      -32.9692463477        4.5260570034  MEMB      65              0.0000000000
      8668        71  POPC      H12R           31.5995071817      -33.5046845500        5.4974547232  MEMB      65              0.0000000000
      8669        71  POPC      H12S           32.5200484946      -32.7742298004        4.1414363730  MEMB      65              0.0000000000
      8670        71  POPC      C213           30.7760761249      -33.8703228484        3.5206889382  MEMB      65              0.0000000000
      8671        71  POPC      H13R           30.7513772655      -33.3794427916        2.5223917361  MEMB      65              0.0000000000
      8672        71  POPC      H13S           29.7255917891      -34.0210495581        3.8566171265  MEMB      65              0.0000000000
      8673        71  POPC      C214           31.4681981130      -35.2223612339        3.4017986471  MEMB      65              0.0000000000
      8674        71  POPC      H14R           31.4778341796      -35.6725404042        4.4155428883  MEMB      65              0.0000000000
      8675        71  POPC      H14S           32.5225692418      -35.0639539996        3.0849233639  MEMB      65              0.0000000000
      8676        71  POPC      C215           30.7641025656      -36.1879532579        2.4474675822  MEMB      65              0.0000000000
      8677        71  POPC      H15R           30.0254745833      -35.6135784860        1.8498022507  MEMB      65              0.0000000000
      8678        71  POPC      H15S           30.1915791377      -36.9347183892        3.0421988613  MEMB      65              0.0000000000
      8679        71  POPC      C216           31.7077511601      -36.9154802625        1.4785333813  MEMB      65              0.0000000000
      8680        71  POPC      H16R           31.0997388553      -37.6508416539        0.9124360944  MEMB      65              0.0000000000
      8681        71  POPC      H16S           32.4700248392      -37.4918813468        2.0403323573  MEMB      65              0.0000000000
      8682        71  POPC      C217           32.3923097808      -35.9847056666        0.4680475240  MEMB      65              0.0000000000
      8683        71  POPC      H17R           33.2422923113      -35.4738019439        0.9720442610  MEMB      65              0.0000000000
      8684        71  POPC      H17S           31.6651015594      -35.1956840065        0.1636662805  MEMB      65              0.0000000000
      8685        71  POPC      C218           32.8878976794      -36.6963455686       -0.7969988403  MEMB      65              0.0000000000
      8686        71  POPC      H18R           33.4142440653      -35.9903811483       -1.4726037775  MEMB      65              0.0000000000
      8687        71  POPC      H18S           32.0326827642      -37.1280028684       -1.3587407957  MEMB      65              0.0000000000
      8688        71  POPC      H18T           33.5790892676      -37.5253546304       -0.5395680206  MEMB      65              0.0000000000
      8689        71  POPC      C33            32.7394451600      -32.3836985805       11.6474051121  MEMB      65              0.0000000000
      8690        71  POPC      H3X            32.8626472129      -33.1234734066       12.4674497457  MEMB      65              0.0000000000
      8691        71  POPC      H3Y            33.7200752680      -31.8741325252       11.5815713251  MEMB      65              0.0000000000
      8692        71  POPC      C34            32.4224336264      -33.0989443880       10.3234444845  MEMB      65              0.0000000000
      8693        71  POPC      H4X            33.3696021439      -33.3386858789        9.7989623011  MEMB      65              0.0000000000
      8694        71  POPC      H4Y            31.8794164753      -32.4085448409        9.6486731511  MEMB      65              0.0000000000
      8695        71  POPC      C35            31.6388115237      -34.4035732811       10.5281153639  MEMB      65              0.0000000000
      8696        71  POPC      H5X            30.7189165465      -34.1903847998       11.1177279836  MEMB      65              0.0000000000
      8697        71  POPC      H5Y            32.2554530120      -35.1117963224       11.1269234932  MEMB      65              0.0000000000
      8698        71  POPC      C36            31.2245863810      -35.0927613590        9.2194117829  MEMB      65              0.0000000000
      8699        71  POPC      H6X            30.8079692475      -36.0936489820        9.4755528846  MEMB      65              0.0000000000
      8700        71  POPC      H6Y            32.1103134176      -35.2555387852        8.5685397483  MEMB      65              0.0000000000
      8701        71  POPC      C37            30.1447143752      -34.3076856994        8.4638164240  MEMB      65              0.0000000000
      8702        71  POPC      H7X            30.5926501612      -33.4027179302        7.9984301210  MEMB      65              0.0000000000
      8703        71  POPC      H7Y            29.3785315822      -33.9814121617        9.2036373551  MEMB      65              0.0000000000
      8704        71  POPC      C38            29.4253946714      -35.1261984824        7.3873383440  MEMB      65              0.0000000000
      8705        71  POPC      H8X            29.0493088079      -36.0678580456        7.8449989689  MEMB      65              0.0000000000
      8706        71  POPC      H8Y            30.1441473870      -35.3908338530        6.5821200055  MEMB      65              0.0000000000
      8707        71  POPC      C39            28.2377225940      -34.3793549649        6.7721526322  MEMB      65              0.0000000000
      8708        71  POPC      H9X            28.6055434499      -33.4192822577        6.3441442141  MEMB      65              0.0000000000
      8709        71  POPC      H9Y            27.4996126735      -34.1297425938        7.5667223808  MEMB      65              0.0000000000
      8710        71  POPC      C310           27.5610113244      -35.1853144437        5.6562493651  MEMB      65              0.0000000000
      8711        71  POPC      H10X           27.1592258083      -36.1388124351        6.0622934180  MEMB      65              0.0000000000
      8712        71  POPC      H10Y           28.3423647194      -35.4459247933        4.9094485044  MEMB      65              0.0000000000
      8713        71  POPC      C311           26.4376731641      -34.3892711442        4.9774728822  MEMB      65              0.0000000000
      8714        71  POPC      H11X           26.8247392569      -33.3709359542        4.7551886130  MEMB      65              0.0000000000
      8715        71  POPC      H11Y           25.5984255800      -34.2671338274        5.6999596127  MEMB      65              0.0000000000
      8716        71  POPC      C312           25.9044159027      -35.0251310342        3.6799274895  MEMB      65              0.0000000000
      8717        71  POPC      H12X           25.0164047940      -34.4539193648        3.3303235204  MEMB      65              0.0000000000
      8718        71  POPC      H12Y           25.5590774215      -36.0580459618        3.9146184806  MEMB      65              0.0000000000
      8719        71  POPC      C313           26.9222791577      -35.1062572720        2.5247952855  MEMB      65              0.0000000000
      8720        71  POPC      H13X           26.4645814309      -35.6727587169        1.6819794928  MEMB      65              0.0000000000
      8721        71  POPC      H13Y           27.7940136808      -35.6978680127        2.8785746409  MEMB      65              0.0000000000
      8722        71  POPC      C314           27.4471723046      -33.7648281510        1.9794579559  MEMB      65              0.0000000000
      8723        71  POPC      H14X           28.5375961346      -33.8732408702        1.7776387754  MEMB      65              0.0000000000
      8724        71  POPC      H14Y           27.3473772448      -32.9580040511        2.7330653839  MEMB      65              0.0000000000
      8725        71  POPC      C315           26.7974085277      -33.3442024738        0.6541752485  MEMB      65              0.0000000000
      8726        71  POPC      H15X           25.7020637231      -33.2556887644        0.7856479342  MEMB      65              0.0000000000
      8727        71  POPC      H15Y           26.9585834808      -34.1460965085       -0.0995808502  MEMB      65              0.0000000000
      8728        71  POPC      C316           27.3501913134      -32.0280570732        0.1071408600  MEMB      65              0.0000000000
      8729        71  POPC      H16X           27.1670901985      -31.1967984783        0.8221659303  MEMB      65              0.0000000000
      8730        71  POPC      H16Y           26.8656316687      -31.7744721254       -0.8603619777  MEMB      65              0.0000000000
      8731        71  POPC      H16Z           28.4447657119      -32.1105278945       -0.0600926014  MEMB      65              0.0000000000
      8732        72  POPC      N               6.2528965761        2.4566804027      -21.4647106686  MEMB      66              0.0000000000
      8733        72  POPC      C12             7.3207813983        1.8406613227      -20.5738160443  MEMB      66              0.0000000000
      8734        72  POPC      H12A            8.2401866401        2.4173101048      -20.6675251825  MEMB      66              0.0000000000
      8735        72  POPC      H12B            7.4916940871        0.8372254169      -20.9380761631  MEMB      66              0.0000000000
      8736        72  POPC      C13             6.0013515964        3.8934484634      -21.1048557945  MEMB      66              0.0000000000
      8737        72  POPC      H13A            6.8870853027        4.5043339384      -21.2130817001  MEMB      66              0.0000000000
      8738        72  POPC      H13B            5.1911191697        4.3352772411      -21.6720129658  MEMB      66              0.0000000000
      8739        72  POPC      H13C            5.7350498700        4.0028331793      -20.0447153772  MEMB      66              0.0000000000
      8740        72  POPC      C14             6.6672009541        2.4081541348      -22.8962130282  MEMB      66              0.0000000000
      8741        72  POPC      H14A            7.6150275461        2.9168771539      -23.0553924785  MEMB      66              0.0000000000
      8742        72  POPC      H14B            6.7557320569        1.3876557074      -23.2608911232  MEMB      66              0.0000000000
      8743        72  POPC      H14C            5.9224949421        2.9180070392      -23.5037448638  MEMB      66              0.0000000000
      8744        72  POPC      C15             4.9748557190        1.7106660651      -21.2868885998  MEMB      66              0.0000000000
      8745        72  POPC      H15A            4.7108804878        1.6865332230      -20.2315705366  MEMB      66              0.0000000000
      8746        72  POPC      H15B            5.0385834796        0.6991642832      -21.6794991167  MEMB      66              0.0000000000
      8747        72  POPC      H15C            4.1589519419        2.2339112905      -21.7705887410  MEMB      66              0.0000000000
      8748        72  POPC      C11             7.0224588006        1.7754526089      -19.0587859421  MEMB      66              0.0000000000
      8749        72  POPC      H11A            7.8252867428        1.1994010569      -18.5457655369  MEMB      66              0.0000000000
      8750        72  POPC      H11B            6.0631186382        1.2401117441      -18.8699332807  MEMB      66              0.0000000000
      8751        72  POPC      P               5.9683124404        3.6649961470      -17.5137561115  MEMB      66              0.0000000000
      8752        72  POPC      O13             5.2426733641        2.5314100520      -16.9077644311  MEMB      66              0.0000000000
      8753        72  POPC      O14             5.1813854906        4.6846439237      -18.2277896012  MEMB      66              0.0000000000
      8754        72  POPC      O12             7.0267849683        3.0928381404      -18.5484306351  MEMB      66              0.0000000000
      8755        72  POPC      O11             6.9233938931        4.3334874384      -16.4388129071  MEMB      66              0.0000000000
      8756        72  POPC      C1              8.1269773994        3.6478109898      -16.0765345286  MEMB      66              0.0000000000
      8757        72  POPC      HA              8.8047872893        4.3685297511      -15.5740058474  MEMB      66              0.0000000000
      8758        72  POPC      HB              8.6914154503        3.2701454856      -16.9575958860  MEMB      66              0.0000000000
      8759        72  POPC      C2              7.8829312852        2.4888926098      -15.0823418617  MEMB      66              0.0000000000
      8760        72  POPC      HS              7.3278517682        1.6854895569      -15.6247365128  MEMB      66              0.0000000000
      8761        72  POPC      O21             7.1238861832        3.0187141298      -13.9731586640  MEMB      66              0.0000000000
      8762        72  POPC      C21             6.0868339013        2.2870489618      -13.5959799075  MEMB      66              0.0000000000
      8763        72  POPC      O22             5.9734112970        1.0802917764      -13.7234278322  MEMB      66              0.0000000000
      8764        72  POPC      C22             5.0329949673        3.2029931783      -12.9581135220  MEMB      66              0.0000000000
      8765        72  POPC      H2R             4.3197557768        3.4708452798      -13.7664584544  MEMB      66              0.0000000000
      8766        72  POPC      H2S             5.5197403387        4.1314465081      -12.5955977476  MEMB      66              0.0000000000
      8767        72  POPC      C3              9.2622868657        1.9179586120      -14.6562232421  MEMB      66              0.0000000000
      8768        72  POPC      HX              9.8876802346        2.7763991597      -14.3245138029  MEMB      66              0.0000000000
      8769        72  POPC      HY              9.7726078559        1.4638904608      -15.5360286623  MEMB      66              0.0000000000
      8770        72  POPC      O31             9.1601250376        0.9984467261      -13.5677209489  MEMB      66              0.0000000000
      8771        72  POPC      C31             8.6814235976       -0.1985473465      -13.8496263487  MEMB      66              0.0000000000
      8772        72  POPC      O32             8.4874181615       -0.6393488509      -14.9711172335  MEMB      66              0.0000000000
      8773        72  POPC      C32             8.4387624411       -0.9670655748      -12.5501668894  MEMB      66              0.0000000000
      8774        72  POPC      H2X             9.2398604760       -1.7124204702      -12.4059373464  MEMB      66              0.0000000000
      8775        72  POPC      H2Y             7.4931287761       -1.5204505315      -12.7133720696  MEMB      66              0.0000000000
      8776        72  POPC      C23             4.2953368926        2.4999875728      -11.7997070536  MEMB      66              0.0000000000
      8777        72  POPC      H3R             3.9443454745        1.5018523147      -12.1378185084  MEMB      66              0.0000000000
      8778        72  POPC      H3S             3.4043120102        3.1078439319      -11.5261561952  MEMB      66              0.0000000000
      8779        72  POPC      C24             5.1800479800        2.3540975888      -10.5557932786  MEMB      66              0.0000000000
      8780        72  POPC      H4R             5.2677956781        3.3432171768      -10.0564051026  MEMB      66              0.0000000000
      8781        72  POPC      H4S             6.1976015735        2.0485224634      -10.8674557498  MEMB      66              0.0000000000
      8782        72  POPC      C25             4.6737718710        1.3288803298       -9.5328206528  MEMB      66              0.0000000000
      8783        72  POPC      H5R             4.3393589168        0.4069500305      -10.0540813769  MEMB      66              0.0000000000
      8784        72  POPC      H5S             3.8060840476        1.7633351041       -8.9918310355  MEMB      66              0.0000000000
      8785        72  POPC      C26             5.7403082856        0.9629628239       -8.4925114698  MEMB      66              0.0000000000
      8786        72  POPC      H6R             6.7058396885        0.7809257425       -9.0082468183  MEMB      66              0.0000000000
      8787        72  POPC      H6S             5.4457564592        0.0199104253       -7.9803700979  MEMB      66              0.0000000000
      8788        72  POPC      C27             5.8900195330        2.0572972496       -7.4255812169  MEMB      66              0.0000000000
      8789        72  POPC      H7R             4.9299098098        2.1095720778       -6.8569766423  MEMB      66              0.0000000000
      8790        72  POPC      H7S             6.0176643216        3.0460218271       -7.9142208289  MEMB      66              0.0000000000
      8791        72  POPC      C28             7.0492097371        1.8049738262       -6.4461110058  MEMB      66              0.0000000000
      8792        72  POPC      H8R             6.9639392293        0.7572152431       -6.0822996258  MEMB      66              0.0000000000
      8793        72  POPC      H8S             6.8910555801        2.4750122603       -5.5720006664  MEMB      66              0.0000000000
      8794        72  POPC      C29             8.3992611998        2.0523217444       -7.0736933725  MEMB      66              0.0000000000
      8795        72  POPC      H91             8.4295886903        1.9539786677       -8.1667112675  MEMB      66              0.0000000000
      8796        72  POPC      C210            9.5416928062        2.3342570704       -6.4222429936  MEMB      66              0.0000000000
      8797        72  POPC      H101           10.4662112741        2.4795758377       -7.0024078105  MEMB      66              0.0000000000
      8798        72  POPC      C211            9.6903436349        2.4524040270       -4.9269748363  MEMB      66              0.0000000000
      8799        72  POPC      H11R            8.6926317393        2.4880149396       -4.4481232178  MEMB      66              0.0000000000
      8800        72  POPC      H11S           10.1833183531        3.4109769408       -4.6777982540  MEMB      66              0.0000000000
      8801        72  POPC      C212           10.5064272302        1.2720304922       -4.3518163868  MEMB      66              0.0000000000
      8802        72  POPC      H12R           11.5937390937        1.4567279991       -4.4867154420  MEMB      66              0.0000000000
      8803        72  POPC      H12S           10.3005225245        0.3758148079       -4.9607401970  MEMB      66              0.0000000000
      8804        72  POPC      C213           10.2731437497        0.8908527595       -2.8726497165  MEMB      66              0.0000000000
      8805        72  POPC      H13R           11.0266402207        1.4332150719       -2.2622841331  MEMB      66              0.0000000000
      8806        72  POPC      H13S           10.4982882239       -0.1941046547       -2.7544563834  MEMB      66              0.0000000000
      8807        72  POPC      C214            8.8877408535        1.1815473122       -2.2664165079  MEMB      66              0.0000000000
      8808        72  POPC      H14R            8.6624307552        2.2665749482       -2.3456995860  MEMB      66              0.0000000000
      8809        72  POPC      H14S            8.9542407190        0.9623152944       -1.1773434373  MEMB      66              0.0000000000
      8810        72  POPC      C215            7.7204182286        0.3651321783       -2.8485016512  MEMB      66              0.0000000000
      8811        72  POPC      H15R            7.9524196949       -0.7165318400       -2.7276556805  MEMB      66              0.0000000000
      8812        72  POPC      H15S            7.6198835806        0.5542183799       -3.9365650752  MEMB      66              0.0000000000
      8813        72  POPC      C216            6.3942841006        0.6819905533       -2.1331833407  MEMB      66              0.0000000000
      8814        72  POPC      H16R            6.6221554092        1.1817823177       -1.1643190443  MEMB      66              0.0000000000
      8815        72  POPC      H16S            5.8591854877       -0.2645925492       -1.9027361611  MEMB      66              0.0000000000
      8816        72  POPC      C217            5.4400544295        1.5827455171       -2.9298324930  MEMB      66              0.0000000000
      8817        72  POPC      H17R            4.8897328091        0.9725074110       -3.6825334321  MEMB      66              0.0000000000
      8818        72  POPC      H17S            6.0360438284        2.3270959168       -3.5004715981  MEMB      66              0.0000000000
      8819        72  POPC      C218            4.4404282926        2.3324187780       -2.0447260029  MEMB      66              0.0000000000
      8820        72  POPC      H18R            3.8884867852        1.6366027241       -1.3812830481  MEMB      66              0.0000000000
      8821        72  POPC      H18S            3.6887387889        2.8754559290       -2.6626549639  MEMB      66              0.0000000000
      8822        72  POPC      H18T            4.9577543194        3.0754527501       -1.4016406466  MEMB      66              0.0000000000
      8823        72  POPC      C33             8.2831964273       -0.0696823154      -11.2950022209  MEMB      66              0.0000000000
      8824        72  POPC      H3X             7.7050380155       -0.6768973126      -10.5571233046  MEMB      66              0.0000000000
      8825        72  POPC      H3Y             7.6657448184        0.8155302227      -11.5299388433  MEMB      66              0.0000000000
      8826        72  POPC      C34             9.6010027325        0.3299338379      -10.5989141303  MEMB      66              0.0000000000
      8827        72  POPC      H4X            10.3715245282       -0.4353273085      -10.8136332181  MEMB      66              0.0000000000
      8828        72  POPC      H4Y             9.4074723511        0.3263711886       -9.5020098568  MEMB      66              0.0000000000
      8829        72  POPC      C35            10.2000931175        1.7077259972      -10.9063868529  MEMB      66              0.0000000000
      8830        72  POPC      H5X            10.6858078323        1.7128917386      -11.9057813517  MEMB      66              0.0000000000
      8831        72  POPC      H5Y            11.0122565436        1.8845992968      -10.1629400954  MEMB      66              0.0000000000
      8832        72  POPC      C36             9.1899499879        2.8532452841      -10.8140056199  MEMB      66              0.0000000000
      8833        72  POPC      H6X             8.3526882988        2.5793910949      -10.1375571456  MEMB      66              0.0000000000
      8834        72  POPC      H6Y             8.7538711045        3.0304515392      -11.8235849517  MEMB      66              0.0000000000
      8835        72  POPC      C37             9.8418709099        4.1314512512      -10.2868310422  MEMB      66              0.0000000000
      8836        72  POPC      H7X            10.8099228524        4.2571884872      -10.8193491779  MEMB      66              0.0000000000
      8837        72  POPC      H7Y            10.0661884470        4.0257527357       -9.2038826704  MEMB      66              0.0000000000
      8838        72  POPC      C38             8.9902778284        5.3769719241      -10.5347396157  MEMB      66              0.0000000000
      8839        72  POPC      H8X             8.7972050673        5.4183489632      -11.6307364222  MEMB      66              0.0000000000
      8840        72  POPC      H8Y             9.5679502324        6.2828749724      -10.2468024377  MEMB      66              0.0000000000
      8841        72  POPC      C39             7.6187658354        5.4082423990       -9.8443964781  MEMB      66              0.0000000000
      8842        72  POPC      H9X             7.0540117358        4.4839666935      -10.0819393626  MEMB      66              0.0000000000
      8843        72  POPC      H9Y             7.0550196036        6.2638660442      -10.2851999214  MEMB      66              0.0000000000
      8844        72  POPC      C310            7.6670794853        5.6184225906       -8.3233590240  MEMB      66              0.0000000000
      8845        72  POPC      H10X            8.4093730478        6.4139762375       -8.0964529170  MEMB      66              0.0000000000
      8846        72  POPC      H10Y            8.0084281488        4.6912605804       -7.8197668752  MEMB      66              0.0000000000
      8847        72  POPC      C311            6.2920608252        6.0436597481       -7.7816542562  MEMB      66              0.0000000000
      8848        72  POPC      H11X            5.5784719267        5.1937194592       -7.8547702942  MEMB      66              0.0000000000
      8849        72  POPC      H11Y            5.9067259156        6.8517623809       -8.4465170429  MEMB      66              0.0000000000
      8850        72  POPC      C312            6.3073006894        6.6007035954       -6.3499033493  MEMB      66              0.0000000000
      8851        72  POPC      H12X            5.2939112628        7.0099644827       -6.1312566560  MEMB      66              0.0000000000
      8852        72  POPC      H12Y            7.0286005721        7.4458868356       -6.2914143427  MEMB      66              0.0000000000
      8853        72  POPC      C313            6.6551631397        5.5813158678       -5.2579065835  MEMB      66              0.0000000000
      8854        72  POPC      H13X            7.7224506408        5.2802740589       -5.3593029187  MEMB      66              0.0000000000
      8855        72  POPC      H13Y            6.0298660164        4.6682106378       -5.3807282080  MEMB      66              0.0000000000
      8856        72  POPC      C314            6.4133738950        6.1591544260       -3.8536830681  MEMB      66              0.0000000000
      8857        72  POPC      H14X            5.3164040830        6.2808298135       -3.6996995602  MEMB      66              0.0000000000
      8858        72  POPC      H14Y            6.8815891955        7.1672481603       -3.7867057491  MEMB      66              0.0000000000
      8859        72  POPC      C315            6.9842019071        5.2834850874       -2.7336473254  MEMB      66              0.0000000000
      8860        72  POPC      H15X            8.0945410474        5.2803525462       -2.8115812462  MEMB      66              0.0000000000
      8861        72  POPC      H15Y            6.6381841772        4.2399783054       -2.8921665062  MEMB      66              0.0000000000
      8862        72  POPC      C316            6.5566336562        5.7303553850       -1.3344103743  MEMB      66              0.0000000000
      8863        72  POPC      H16X            5.4538762239        5.6421766378       -1.2292445654  MEMB      66              0.0000000000
      8864        72  POPC      H16Y            6.8334425751        6.7877435156       -1.1520260998  MEMB      66              0.0000000000
      8865        72  POPC      H16Z            7.0377011967        5.0995236056       -0.5557439463  MEMB      66              0.0000000000
      8866        73  POPC      N               4.3185044669       -3.1789051404      -19.7450744703  MEMB      67              0.0000000000
      8867        73  POPC      C12             3.6143896087       -4.4032563446      -20.3359933940  MEMB      67              0.0000000000
      8868        73  POPC      H12A            3.6720755009       -4.3699016887      -21.4195672869  MEMB      67              0.0000000000
      8869        73  POPC      H12B            2.5578182629       -4.3704878936      -20.0733902875  MEMB      67              0.0000000000
      8870        73  POPC      C13             4.2351183374       -3.2140884105      -18.2443153234  MEMB      67              0.0000000000
      8871        73  POPC      H13A            4.6563780573       -2.3434060164      -17.7496695080  MEMB      67              0.0000000000
      8872        73  POPC      H13B            3.2004419763       -3.3692480674      -17.9519303448  MEMB      67              0.0000000000
      8873        73  POPC      H13C            4.7581440490       -4.0951771983      -17.8771959000  MEMB      67              0.0000000000
      8874        73  POPC      C14             5.7600608371       -3.1546442612      -20.1233050033  MEMB      67              0.0000000000
      8875        73  POPC      H14A            6.2453624870       -4.0634385903      -19.7719634756  MEMB      67              0.0000000000
      8876        73  POPC      H14B            5.8758248659       -3.1039047807      -21.2105838600  MEMB      67              0.0000000000
      8877        73  POPC      H14C            6.2516516723       -2.2868902806      -19.6940669098  MEMB      67              0.0000000000
      8878        73  POPC      C15             3.6404747046       -1.9569567508      -20.2688416026  MEMB      67              0.0000000000
      8879        73  POPC      H15A            3.6984675977       -1.9042321772      -21.3579824973  MEMB      67              0.0000000000
      8880        73  POPC      H15B            4.1227013538       -1.0672025518      -19.8924213590  MEMB      67              0.0000000000
      8881        73  POPC      H15C            2.5949211772       -1.9302496211      -19.9944991840  MEMB      67              0.0000000000
      8882        73  POPC      C11             4.0566483693       -5.7974110179      -19.8623199363  MEMB      67              0.0000000000
      8883        73  POPC      H11A            5.1671471616       -5.8888737850      -19.8822462681  MEMB      67              0.0000000000
      8884        73  POPC      H11B            3.6300716709       -6.5515562156      -20.5705066146  MEMB      67              0.0000000000
      8885        73  POPC      P               3.7504014202       -7.4287304059      -17.8897883901  MEMB      67              0.0000000000
      8886        73  POPC      O13             3.3313405261       -8.4870588752      -18.8358461942  MEMB      67              0.0000000000
      8887        73  POPC      O14             3.1254008549       -7.4103575375      -16.5495504409  MEMB      67              0.0000000000
      8888        73  POPC      O12             3.5310912926       -6.0007733830      -18.5532930157  MEMB      67              0.0000000000
      8889        73  POPC      O11             5.3239122336       -7.3851953743      -17.7120100054  MEMB      67              0.0000000000
      8890        73  POPC      C1              5.9238930712       -6.2307760667      -17.1011660645  MEMB      67              0.0000000000
      8891        73  POPC      HA              5.2014553938       -5.4067674275      -16.8919423907  MEMB      67              0.0000000000
      8892        73  POPC      HB              6.6995948435       -5.8370045513      -17.7932353355  MEMB      67              0.0000000000
      8893        73  POPC      C2              6.5984128169       -6.5025807096      -15.7285823867  MEMB      67              0.0000000000
      8894        73  POPC      HS              7.3509040715       -7.3153050645      -15.8491682057  MEMB      67              0.0000000000
      8895        73  POPC      O21             5.6309684948       -6.8226672233      -14.7155341983  MEMB      67              0.0000000000
      8896        73  POPC      C21             5.2467754267       -8.0901983557      -14.6722491132  MEMB      67              0.0000000000
      8897        73  POPC      O22             5.6488697119       -9.0011861863      -15.3740251237  MEMB      67              0.0000000000
      8898        73  POPC      C22             4.3329002165       -8.2697521829      -13.4498835952  MEMB      67              0.0000000000
      8899        73  POPC      H2R             3.3422703447       -7.8454138888      -13.7124703051  MEMB      67              0.0000000000
      8900        73  POPC      H2S             4.7543088068       -7.6590588928      -12.6268242814  MEMB      67              0.0000000000
      8901        73  POPC      C3              7.3433042182       -5.2126509110      -15.2735226185  MEMB      67              0.0000000000
      8902        73  POPC      HX              8.0483894446       -4.9256532789      -16.0823568071  MEMB      67              0.0000000000
      8903        73  POPC      HY              7.9708427898       -5.4440140764      -14.3879462017  MEMB      67              0.0000000000
      8904        73  POPC      O31             6.4131678449       -4.1239623219      -15.0565498156  MEMB      67              0.0000000000
      8905        73  POPC      C31             6.1796266026       -3.8026993464      -13.7780120791  MEMB      67              0.0000000000
      8906        73  POPC      O32             6.8036137025       -4.2332209665      -12.8259579509  MEMB      67              0.0000000000
      8907        73  POPC      C32             4.9743560208       -2.8518330038      -13.6988126275  MEMB      67              0.0000000000
      8908        73  POPC      H2X             4.0944334436       -3.4111789956      -14.0759574239  MEMB      67              0.0000000000
      8909        73  POPC      H2Y             5.1789752509       -2.0152698246      -14.4010238060  MEMB      67              0.0000000000
      8910        73  POPC      C23             4.1959819350       -9.7520949673      -13.0152768039  MEMB      67              0.0000000000
      8911        73  POPC      H3R             4.9409707349      -10.4007525084      -13.5275490854  MEMB      67              0.0000000000
      8912        73  POPC      H3S             3.1923360184      -10.1064325433      -13.3361967542  MEMB      67              0.0000000000
      8913        73  POPC      C24             4.3721741789       -9.9928499650      -11.5034196198  MEMB      67              0.0000000000
      8914        73  POPC      H4R             4.1679899672      -11.0671120049      -11.2961471337  MEMB      67              0.0000000000
      8915        73  POPC      H4S             3.6140830222       -9.3923284235      -10.9550218671  MEMB      67              0.0000000000
      8916        73  POPC      C25             5.7708413941       -9.6548623152      -10.9618383033  MEMB      67              0.0000000000
      8917        73  POPC      H5R             5.9696409006       -8.5689075741      -11.1028354815  MEMB      67              0.0000000000
      8918        73  POPC      H5S             6.5340308902      -10.2258212952      -11.5319575356  MEMB      67              0.0000000000
      8919        73  POPC      C26             5.9415035199       -9.9902673016       -9.4726554283  MEMB      67              0.0000000000
      8920        73  POPC      H6R             6.0686499815      -11.0898501181       -9.3610307205  MEMB      67              0.0000000000
      8921        73  POPC      H6S             5.0182530749       -9.6857290653       -8.9365795827  MEMB      67              0.0000000000
      8922        73  POPC      C27             7.1083012589       -9.2518015184       -8.8009117204  MEMB      67              0.0000000000
      8923        73  POPC      H7R             7.8454105585       -8.9707692934       -9.5832157041  MEMB      67              0.0000000000
      8924        73  POPC      H7S             7.6349483632       -9.9292898492       -8.0963820270  MEMB      67              0.0000000000
      8925        73  POPC      C28             6.6034954178       -8.0274683525       -8.0105980825  MEMB      67              0.0000000000
      8926        73  POPC      H8R             6.1060614541       -8.3831916132       -7.0802869823  MEMB      67              0.0000000000
      8927        73  POPC      H8S             5.8188300405       -7.5308097742       -8.6254920360  MEMB      67              0.0000000000
      8928        73  POPC      C29             7.6930875354       -7.0303920801       -7.7354220549  MEMB      67              0.0000000000
      8929        73  POPC      H91             8.1414863989       -6.5992195047       -8.6436118325  MEMB      67              0.0000000000
      8930        73  POPC      C210            8.1672521572       -6.6065361663       -6.5547114146  MEMB      67              0.0000000000
      8931        73  POPC      H101            8.9895639215       -5.8857684525       -6.5973427731  MEMB      67              0.0000000000
      8932        73  POPC      C211            7.7699906314       -6.9874602144       -5.1491313231  MEMB      67              0.0000000000
      8933        73  POPC      H11R            8.6893438182       -7.2053939725       -4.5619179466  MEMB      67              0.0000000000
      8934        73  POPC      H11S            7.1550139454       -7.9140156178       -5.1267727145  MEMB      67              0.0000000000
      8935        73  POPC      C212            6.9786918115       -5.8767302797       -4.4261035702  MEMB      67              0.0000000000
      8936        73  POPC      H12R            5.9096455798       -6.1150715829       -4.6011469857  MEMB      67              0.0000000000
      8937        73  POPC      H12S            7.1504745695       -4.8743293954       -4.8664484187  MEMB      67              0.0000000000
      8938        73  POPC      C213            7.2189310875       -5.8003825405       -2.9052915295  MEMB      67              0.0000000000
      8939        73  POPC      H13R            7.1768355622       -6.8403539872       -2.5131799671  MEMB      67              0.0000000000
      8940        73  POPC      H13S            6.4001138552       -5.2203438292       -2.4321194097  MEMB      67              0.0000000000
      8941        73  POPC      C214            8.5546230300       -5.1657107726       -2.4751098159  MEMB      67              0.0000000000
      8942        73  POPC      H14R            9.2828804871       -5.2948269534       -3.2978528843  MEMB      67              0.0000000000
      8943        73  POPC      H14S            8.9561791297       -5.7424388696       -1.6114298643  MEMB      67              0.0000000000
      8944        73  POPC      C215            8.4856611024       -3.6755399734       -2.0673244428  MEMB      67              0.0000000000
      8945        73  POPC      H15R            7.4859199227       -3.2527798989       -2.2990899863  MEMB      67              0.0000000000
      8946        73  POPC      H15S            9.2297232119       -3.1044469965       -2.6637708266  MEMB      67              0.0000000000
      8947        73  POPC      C216            8.8284078261       -3.4560259353       -0.5862020711  MEMB      67              0.0000000000
      8948        73  POPC      H16R            9.7403128331       -4.0547993069       -0.3654696932  MEMB      67              0.0000000000
      8949        73  POPC      H16S            8.0020411868       -3.8525152359        0.0293083752  MEMB      67              0.0000000000
      8950        73  POPC      C217            9.0943686203       -1.9993783074       -0.1832912308  MEMB      67              0.0000000000
      8951        73  POPC      H17R            9.8650125968       -1.9818894157        0.6204921144  MEMB      67              0.0000000000
      8952        73  POPC      H17S            9.5224022846       -1.4516764367       -1.0497266476  MEMB      67              0.0000000000
      8953        73  POPC      C218            7.8652137329       -1.2714084839        0.3607288549  MEMB      67              0.0000000000
      8954        73  POPC      H18R            8.0860246018       -0.1918154169        0.4929568607  MEMB      67              0.0000000000
      8955        73  POPC      H18S            7.5690920358       -1.6784304508        1.3495668466  MEMB      67              0.0000000000
      8956        73  POPC      H18T            7.0050025103       -1.3846405548       -0.3293068985  MEMB      67              0.0000000000
      8957        73  POPC      C33             4.6630035249       -2.2595771570      -12.2899569083  MEMB      67              0.0000000000
      8958        73  POPC      H3X             3.7657791404       -1.6079136176      -12.3895859670  MEMB      67              0.0000000000
      8959        73  POPC      H3Y             5.5025227232       -1.6022751799      -11.9742481035  MEMB      67              0.0000000000
      8960        73  POPC      C34             4.3860386450       -3.2696851289      -11.1549218468  MEMB      67              0.0000000000
      8961        73  POPC      H4X             4.0948024362       -2.7069447336      -10.2392948043  MEMB      67              0.0000000000
      8962        73  POPC      H4Y             5.3238384116       -3.8147828867      -10.9039098224  MEMB      67              0.0000000000
      8963        73  POPC      C35             3.2993156480       -4.3080079854      -11.4741536203  MEMB      67              0.0000000000
      8964        73  POPC      H5X             3.6376712497       -4.9152784014      -12.3466155142  MEMB      67              0.0000000000
      8965        73  POPC      H5Y             2.3578373202       -3.7975058701      -11.7663705255  MEMB      67              0.0000000000
      8966        73  POPC      C36             3.0216654037       -5.2818057296      -10.3136367362  MEMB      67              0.0000000000
      8967        73  POPC      H6X             3.8146077733       -5.1745209841       -9.5413968606  MEMB      67              0.0000000000
      8968        73  POPC      H6Y             3.0931178338       -6.3194888127      -10.7128835679  MEMB      67              0.0000000000
      8969        73  POPC      C37             1.6417206137       -5.1025636221       -9.6568545370  MEMB      67              0.0000000000
      8970        73  POPC      H7X             0.8736062427       -4.9978506317      -10.4570586694  MEMB      67              0.0000000000
      8971        73  POPC      H7Y             1.6306784960       -4.1680226777       -9.0540513639  MEMB      67              0.0000000000
      8972        73  POPC      C38             1.2242507908       -6.2974611292       -8.7806852764  MEMB      67              0.0000000000
      8973        73  POPC      H8X             1.1422334462       -7.1935051177       -9.4394577714  MEMB      67              0.0000000000
      8974        73  POPC      H8Y             0.2175756026       -6.1043190591       -8.3515344939  MEMB      67              0.0000000000
      8975        73  POPC      C39             2.1869161891       -6.6347120122       -7.6329622744  MEMB      67              0.0000000000
      8976        73  POPC      H9X             3.2202947403       -6.7471674737       -8.0280443972  MEMB      67              0.0000000000
      8977        73  POPC      H9Y             1.8921109198       -7.6222178643       -7.2149111692  MEMB      67              0.0000000000
      8978        73  POPC      C310            2.1798091030       -5.6154400118       -6.4865192916  MEMB      67              0.0000000000
      8979        73  POPC      H10X            1.1831388971       -5.6117861928       -5.9918203007  MEMB      67              0.0000000000
      8980        73  POPC      H10Y            2.3614041768       -4.5983572347       -6.8987699443  MEMB      67              0.0000000000
      8981        73  POPC      C311            3.2704698590       -5.9245361194       -5.4538127056  MEMB      67              0.0000000000
      8982        73  POPC      H11X            4.2385887760       -5.9785485249       -6.0044074311  MEMB      67              0.0000000000
      8983        73  POPC      H11Y            3.0970689104       -6.9201253197       -4.9922299436  MEMB      67              0.0000000000
      8984        73  POPC      C312            3.3933791491       -4.8619687302       -4.3521338248  MEMB      67              0.0000000000
      8985        73  POPC      H12X            3.3434932657       -3.8485807309       -4.8072409245  MEMB      67              0.0000000000
      8986        73  POPC      H12Y            4.3935149276       -4.9592779916       -3.8808769560  MEMB      67              0.0000000000
      8987        73  POPC      C313            2.3515321326       -4.9899360988       -3.2342323817  MEMB      67              0.0000000000
      8988        73  POPC      H13X            2.2267370916       -6.0538839080       -2.9338759295  MEMB      67              0.0000000000
      8989        73  POPC      H13Y            1.3768987182       -4.6281725365       -3.6339672509  MEMB      67              0.0000000000
      8990        73  POPC      C314            2.7407368609       -4.1572941148       -2.0014949973  MEMB      67              0.0000000000
      8991        73  POPC      H14X            1.8279354697       -3.9677574880       -1.3979930187  MEMB      67              0.0000000000
      8992        73  POPC      H14Y            3.1213654266       -3.1808213341       -2.3816253932  MEMB      67              0.0000000000
      8993        73  POPC      C315            3.8123599891       -4.8267001071       -1.1246825689  MEMB      67              0.0000000000
      8994        73  POPC      H15X            4.3905126293       -5.5273952148       -1.7683778107  MEMB      67              0.0000000000
      8995        73  POPC      H15Y            3.3265473795       -5.4620385440       -0.3514219765  MEMB      67              0.0000000000
      8996        73  POPC      C316            4.8090335448       -3.8590268774       -0.4734124848  MEMB      67              0.0000000000
      8997        73  POPC      H16X            4.3466955709       -3.2404019631        0.3149505818  MEMB      67              0.0000000000
      8998        73  POPC      H16Y            5.2588532796       -3.1872618456       -1.2358065364  MEMB      67              0.0000000000
      8999        73  POPC      H16Z            5.6367742138       -4.4248273605        0.0015716656  MEMB      67              0.0000000000
      9000        74  POPS      N              -0.9687566300        5.9304143709      -19.7750912224  MEMB      68              0.0000000000
      9001        74  POPS      HN1            -0.0693389562        5.4048152937      -19.7281352359  MEMB      68              0.0000000000
      9002        74  POPS      HN2            -1.3483964794        6.1498569855      -18.8372835723  MEMB      68              0.0000000000
      9003        74  POPS      HN3            -1.6313682114        5.3382908816      -20.3115757262  MEMB      68              0.0000000000
      9004        74  POPS      C12            -0.6472462071        7.2037410089      -20.4845270059  MEMB      68              0.0000000000
      9005        74  POPS      H12A           -1.5567524580        7.5874070173      -20.9096026682  MEMB      68              0.0000000000
      9006        74  POPS      C13             0.3206229074        6.9807867749      -21.6626096830  MEMB      68              0.0000000000
      9007        74  POPS      O13A            0.7394303344        5.8177895007      -21.9155461663  MEMB      68              0.0000000000
      9008        74  POPS      O13B            0.5464631887        7.9646644328      -22.4165344461  MEMB      68              0.0000000000
      9009        74  POPS      C11            -0.1647824447        8.2737093363      -19.4681916195  MEMB      68              0.0000000000
      9010        74  POPS      H11A            0.3200924605        9.1212595221      -20.0091733030  MEMB      68              0.0000000000
      9011        74  POPS      H11B            0.6024561315        7.8393516926      -18.7830173068  MEMB      68              0.0000000000
      9012        74  POPS      P              -1.1885031890        9.7176092986      -17.5142378805  MEMB      68              0.0000000000
      9013        74  POPS      O13            -2.3070057122       10.6927208057      -17.5484294214  MEMB      68              0.0000000000
      9014        74  POPS      O14             0.1774759548       10.2721630958      -17.5261936270  MEMB      68              0.0000000000
      9015        74  POPS      O12            -1.3196120382        8.7435818735      -18.7645813124  MEMB      68              0.0000000000
      9016        74  POPS      O11            -1.4097280776        8.6944772342      -16.3165425179  MEMB      68              0.0000000000
      9017        74  POPS      C1             -2.3742454869        7.6315500358      -16.4725791369  MEMB      68              0.0000000000
      9018        74  POPS      HA             -1.9469146412        6.8217791208      -17.1019861675  MEMB      68              0.0000000000
      9019        74  POPS      HB             -3.2947343089        8.0087438238      -16.9758181458  MEMB      68              0.0000000000
      9020        74  POPS      C2             -2.8780806373        6.9691471608      -15.1367510287  MEMB      68              0.0000000000
      9021        74  POPS      HS             -3.9844448051        6.8439386719      -15.2163916389  MEMB      68              0.0000000000
      9022        74  POPS      O21            -2.5316672369        7.7608855867      -13.9872201734  MEMB      68              0.0000000000
      9023        74  POPS      C21            -3.2881638501        8.8309818048      -13.8269546006  MEMB      68              0.0000000000
      9024        74  POPS      O22            -4.3840142976        9.0067032037      -14.3359244703  MEMB      68              0.0000000000
      9025        74  POPS      C22            -2.6140753626        9.7977398392      -12.8519109487  MEMB      68              0.0000000000
      9026        74  POPS      H2R            -2.6552760089       10.8030117114      -13.3193613203  MEMB      68              0.0000000000
      9027        74  POPS      H2S            -1.5469037365        9.5146182878      -12.7456419969  MEMB      68              0.0000000000
      9028        74  POPS      C3             -2.3206054033        5.5229609642      -14.9407946797  MEMB      68              0.0000000000
      9029        74  POPS      HX             -2.6373547859        4.8930671598      -15.8049182114  MEMB      68              0.0000000000
      9030        74  POPS      HY             -2.8296209320        5.1108269463      -14.0364343603  MEMB      68              0.0000000000
      9031        74  POPS      O31            -0.8772783051        5.5301630327      -14.8462549295  MEMB      68              0.0000000000
      9032        74  POPS      C31            -0.3598608047        5.0046774953      -13.7486286389  MEMB      68              0.0000000000
      9033        74  POPS      O32            -0.9433588723        4.2703271686      -12.9674248764  MEMB      68              0.0000000000
      9034        74  POPS      C32             1.1179595536        5.3848003330      -13.6366790168  MEMB      68              0.0000000000
      9035        74  POPS      H2X             1.6015963755        5.1814874507      -14.6138688880  MEMB      68              0.0000000000
      9036        74  POPS      H2Y             1.5763907947        4.7276422608      -12.8681856243  MEMB      68              0.0000000000
      9037        74  POPS      C23            -3.3004458417        9.8292538168      -11.4647824200  MEMB      68              0.0000000000
      9038        74  POPS      H3R            -4.3392344500       10.2197573979      -11.5553121242  MEMB      68              0.0000000000
      9039        74  POPS      H3S            -2.7328786225       10.5380559496      -10.8180567290  MEMB      68              0.0000000000
      9040        74  POPS      C24            -3.3370462638        8.4645669312      -10.7550907805  MEMB      68              0.0000000000
      9041        74  POPS      H4R            -4.0300215388        7.7815284843      -11.2971224730  MEMB      68              0.0000000000
      9042        74  POPS      H4S            -3.7556103201        8.6168702495       -9.7345532094  MEMB      68              0.0000000000
      9043        74  POPS      C25            -1.9646418911        7.7790554801      -10.6510809918  MEMB      68              0.0000000000
      9044        74  POPS      H5R            -1.2112385379        8.4951662527      -10.2542036284  MEMB      68              0.0000000000
      9045        74  POPS      H5S            -1.6263363920        7.4737929454      -11.6675658956  MEMB      68              0.0000000000
      9046        74  POPS      C26            -1.9946242074        6.5285587341       -9.7644919400  MEMB      68              0.0000000000
      9047        74  POPS      H6R            -1.0951233163        5.9039872872       -9.9830092251  MEMB      68              0.0000000000
      9048        74  POPS      H6S            -2.8882569856        5.9187054515      -10.0151234860  MEMB      68              0.0000000000
      9049        74  POPS      C27            -1.9582421855        6.8789605522       -8.2695727123  MEMB      68              0.0000000000
      9050        74  POPS      H7R            -2.7658824262        7.5911099635       -7.9961006053  MEMB      68              0.0000000000
      9051        74  POPS      H7S            -0.9872755248        7.3877202289       -8.0921470533  MEMB      68              0.0000000000
      9052        74  POPS      C28            -2.0006428549        5.6494849000       -7.3535061376  MEMB      68              0.0000000000
      9053        74  POPS      H8R            -1.6706335577        5.9686001165       -6.3398862844  MEMB      68              0.0000000000
      9054        74  POPS      H8S            -1.2454394706        4.9127819379       -7.7164810941  MEMB      68              0.0000000000
      9055        74  POPS      C29            -3.3749008298        5.0380420323       -7.3311240257  MEMB      68              0.0000000000
      9056        74  POPS      H91            -3.9620889275        5.1591206801       -8.2551970393  MEMB      68              0.0000000000
      9057        74  POPS      C210           -3.9173100581        4.3685745823       -6.3049464328  MEMB      68              0.0000000000
      9058        74  POPS      H101           -4.9463803025        3.9886794418       -6.4084326682  MEMB      68              0.0000000000
      9059        74  POPS      C211           -3.2610593596        4.0994163764       -4.9761694447  MEMB      68              0.0000000000
      9060        74  POPS      H11R           -2.2431577128        4.5474525695       -4.9085121201  MEMB      68              0.0000000000
      9061        74  POPS      H11S           -3.1281231340        3.0093610240       -4.8193642709  MEMB      68              0.0000000000
      9062        74  POPS      C212           -4.1243985353        4.6626881896       -3.8369536450  MEMB      68              0.0000000000
      9063        74  POPS      H12R           -4.7109047473        3.8329588722       -3.3839560985  MEMB      68              0.0000000000
      9064        74  POPS      H12S           -4.8611172271        5.4068048743       -4.2208373520  MEMB      68              0.0000000000
      9065        74  POPS      C213           -3.3157430258        5.3874371542       -2.7564220045  MEMB      68              0.0000000000
      9066        74  POPS      H13R           -2.4321844668        4.7858464918       -2.4481735452  MEMB      68              0.0000000000
      9067        74  POPS      H13S           -3.9660633401        5.5197866672       -1.8640965753  MEMB      68              0.0000000000
      9068        74  POPS      C214           -2.8843261868        6.7947301380       -3.1973726060  MEMB      68              0.0000000000
      9069        74  POPS      H14R           -3.7750894709        7.3267381355       -3.5984791007  MEMB      68              0.0000000000
      9070        74  POPS      H14S           -2.1384382474        6.7136233955       -4.0186757521  MEMB      68              0.0000000000
      9071        74  POPS      C215           -2.2978729478        7.6263391102       -2.0499086357  MEMB      68              0.0000000000
      9072        74  POPS      H15R           -3.0638634257        7.7302162402       -1.2501707403  MEMB      68              0.0000000000
      9073        74  POPS      H15S           -2.0645548235        8.6466362693       -2.4285184693  MEMB      68              0.0000000000
      9074        74  POPS      C216           -1.0202890559        7.0220934890       -1.4530559131  MEMB      68              0.0000000000
      9075        74  POPS      H16R           -0.2844976280        7.8370044279       -1.2762378232  MEMB      68              0.0000000000
      9076        74  POPS      H16S           -0.5608304486        6.3051798861       -2.1719095808  MEMB      68              0.0000000000
      9077        74  POPS      C217           -1.2542012185        6.3074488665       -0.1148902230  MEMB      68              0.0000000000
      9078        74  POPS      H17R           -1.9099075789        5.4235842405       -0.2772464383  MEMB      68              0.0000000000
      9079        74  POPS      H17S           -1.7761023769        6.9901723459        0.5833660284  MEMB      68              0.0000000000
      9080        74  POPS      C218            0.0366493028        5.8521015482        0.5570793073  MEMB      68              0.0000000000
      9081        74  POPS      H18R            0.7123223849        6.7162967238        0.7114795420  MEMB      68              0.0000000000
      9082        74  POPS      H18S            0.5566227053        5.1056916524       -0.0838007796  MEMB      68              0.0000000000
      9083        74  POPS      H18T           -0.1675881093        5.3728657723        1.5380985518  MEMB      68              0.0000000000
      9084        74  POPS      C33             1.3551964259        6.8654349091      -13.2439637257  MEMB      68              0.0000000000
      9085        74  POPS      H3X             0.8622399229        7.0583610413      -12.2650397131  MEMB      68              0.0000000000
      9086        74  POPS      H3Y             0.8872451787        7.5424690233      -13.9974732805  MEMB      68              0.0000000000
      9087        74  POPS      C34             2.8607724021        7.1849842296      -13.1366764664  MEMB      68              0.0000000000
      9088        74  POPS      H4X             3.3149865359        7.0116600143      -14.1433568825  MEMB      68              0.0000000000
      9089        74  POPS      H4Y             3.3373036723        6.4899430751      -12.4116186883  MEMB      68              0.0000000000
      9090        74  POPS      C35             3.1750820732        8.6327876259      -12.7235432175  MEMB      68              0.0000000000
      9091        74  POPS      H5X             2.7178795390        9.3155435432      -13.4767706452  MEMB      68              0.0000000000
      9092        74  POPS      H5Y             4.2773407093        8.7927743795      -12.7653000343  MEMB      68              0.0000000000
      9093        74  POPS      C36             2.6681271931        9.0376182491      -11.3319590616  MEMB      68              0.0000000000
      9094        74  POPS      H6X             3.1880364171        8.4332150246      -10.5550961118  MEMB      68              0.0000000000
      9095        74  POPS      H6Y             1.5789188277        8.8283723122      -11.2545231462  MEMB      68              0.0000000000
      9096        74  POPS      C37             2.8926021157       10.5342797907      -11.0578810779  MEMB      68              0.0000000000
      9097        74  POPS      H7X             2.2729638012       11.1324895420      -11.7625573797  MEMB      68              0.0000000000
      9098        74  POPS      H7Y             3.9597333226       10.7756454189      -11.2638423104  MEMB      68              0.0000000000
      9099        74  POPS      C38             2.5699817243       10.9583637902       -9.6170098587  MEMB      68              0.0000000000
      9100        74  POPS      H8X             2.9596100000       11.9896108028       -9.4557199100  MEMB      68              0.0000000000
      9101        74  POPS      H8Y             3.1033314708       10.2794214722       -8.9161338330  MEMB      68              0.0000000000
      9102        74  POPS      C39             1.0654288292       10.9608016076       -9.3088989603  MEMB      68              0.0000000000
      9103        74  POPS      H9X             0.6580039834        9.9376891443       -9.4482177651  MEMB      68              0.0000000000
      9104        74  POPS      H9Y             0.5600346745       11.6171815257      -10.0529783215  MEMB      68              0.0000000000
      9105        74  POPS      C310            0.7262853957       11.4793443786       -7.9000665539  MEMB      68              0.0000000000
      9106        74  POPS      H10X           -0.3777744836       11.5925241547       -7.8112675605  MEMB      68              0.0000000000
      9107        74  POPS      H10Y            1.1794413529       12.4882346198       -7.7900249433  MEMB      68              0.0000000000
      9108        74  POPS      C311            1.2169352054       10.5915943051       -6.7430164741  MEMB      68              0.0000000000
      9109        74  POPS      H11X            1.0602432011       11.1395080647       -5.7852793913  MEMB      68              0.0000000000
      9110        74  POPS      H11Y            2.3089087820       10.4137906898       -6.8463826287  MEMB      68              0.0000000000
      9111        74  POPS      C312            0.4800961811        9.2451306977       -6.6703758034  MEMB      68              0.0000000000
      9112        74  POPS      H12X            0.4553432703        8.7997856503       -7.6881158168  MEMB      68              0.0000000000
      9113        74  POPS      H12Y           -0.5693454356        9.4295484080       -6.3495775142  MEMB      68              0.0000000000
      9114        74  POPS      C313            1.1319548923        8.2039816540       -5.7489260217  MEMB      68              0.0000000000
      9115        74  POPS      H13X            2.0867554941        7.8676435727       -6.2152291110  MEMB      68              0.0000000000
      9116        74  POPS      H13Y            0.4701609468        7.3089278436       -5.6772671281  MEMB      68              0.0000000000
      9117        74  POPS      C314            1.4376446403        8.7162323685       -4.3398144909  MEMB      68              0.0000000000
      9118        74  POPS      H14X            0.5013608690        9.0552043299       -3.8418084477  MEMB      68              0.0000000000
      9119        74  POPS      H14Y            2.1224039886        9.5915653365       -4.4113423790  MEMB      68              0.0000000000
      9120        74  POPS      C315            2.1265217393        7.6504086046       -3.4878846309  MEMB      68              0.0000000000
      9121        74  POPS      H15X            2.9778923904        7.2179519340       -4.0620635447  MEMB      68              0.0000000000
      9122        74  POPS      H15Y            1.4200906723        6.8108008739       -3.2874305789  MEMB      68              0.0000000000
      9123        74  POPS      C316            2.6574375868        8.2063067252       -2.1724903464  MEMB      68              0.0000000000
      9124        74  POPS      H16X            3.3831285684        9.0263870395       -2.3566816306  MEMB      68              0.0000000000
      9125        74  POPS      H16Y            3.1714505956        7.4015634121       -1.6055027808  MEMB      68              0.0000000000
      9126        74  POPS      H16Z            1.8279952206        8.6035944004       -1.5506689591  MEMB      68              0.0000000000
      9127        75  POPS      N              -5.2466791977       -6.3508903454      -20.5729027979  MEMB      69              0.0000000000
      9128        75  POPS      HN1            -5.5646996895       -7.3259862003      -20.3927554187  MEMB      69              0.0000000000
      9129        75  POPS      HN2            -5.5190057069       -5.7386099528      -19.7532878258  MEMB      69              0.0000000000
      9130        75  POPS      HN3            -5.6447393788       -6.0095765455      -21.4649780259  MEMB      69              0.0000000000
      9131        75  POPS      C12            -3.7594340313       -6.4505576903      -20.5862727686  MEMB      69              0.0000000000
      9132        75  POPS      H12A           -3.3536564406       -5.4915310908      -20.8688953499  MEMB      69              0.0000000000
      9133        75  POPS      C13            -3.2164727055       -7.4817297307      -21.5895592140  MEMB      69              0.0000000000
      9134        75  POPS      O13A           -4.0014923123       -8.0779502987      -22.3731203704  MEMB      69              0.0000000000
      9135        75  POPS      O13B           -1.9713040190       -7.6735093088      -21.6131724960  MEMB      69              0.0000000000
      9136        75  POPS      C11            -3.2621999549       -6.8374869947      -19.1661209113  MEMB      69              0.0000000000
      9137        75  POPS      H11A           -2.1532869588       -6.9321865587      -19.1702758216  MEMB      69              0.0000000000
      9138        75  POPS      H11B           -3.6356776636       -7.8413367934      -18.8945491127  MEMB      69              0.0000000000
      9139        75  POPS      P              -4.9498165265       -5.8576824405      -17.3835730341  MEMB      69              0.0000000000
      9140        75  POPS      O13            -5.8710970161       -5.0405323623      -18.2155236578  MEMB      69              0.0000000000
      9141        75  POPS      O14            -4.6979692172       -5.4965195202      -15.9853307680  MEMB      69              0.0000000000
      9142        75  POPS      O12            -3.6040466376       -5.8550988270      -18.1985521325  MEMB      69              0.0000000000
      9143        75  POPS      O11            -5.4213931275       -7.3672585137      -17.4521527263  MEMB      69              0.0000000000
      9144        75  POPS      C1             -6.7500908617       -7.7856257022      -17.7747340688  MEMB      69              0.0000000000
      9145        75  POPS      HA             -6.8093028141       -8.0934808180      -18.8411111725  MEMB      69              0.0000000000
      9146        75  POPS      HB             -7.4930251223       -6.9642958917      -17.6205483934  MEMB      69              0.0000000000
      9147        75  POPS      C2             -7.2269544975       -9.0001908929      -16.9023462930  MEMB      69              0.0000000000
      9148        75  POPS      HS             -8.3417152120       -9.0058225554      -16.9546133840  MEMB      69              0.0000000000
      9149        75  POPS      O21            -6.8109544383       -8.9087227586      -15.5357741196  MEMB      69              0.0000000000
      9150        75  POPS      C21            -7.1729691405       -7.8162937311      -14.8887175516  MEMB      69              0.0000000000
      9151        75  POPS      O22            -8.0306858048       -7.0316928683      -15.2605442041  MEMB      69              0.0000000000
      9152        75  POPS      C22            -6.4845108315       -7.8453027095      -13.5242322353  MEMB      69              0.0000000000
      9153        75  POPS      H2R            -5.4141841264       -7.6080642764      -13.6860821702  MEMB      69              0.0000000000
      9154        75  POPS      H2S            -6.5733360997       -8.8799822005      -13.1267468481  MEMB      69              0.0000000000
      9155        75  POPS      C3             -6.7511116682      -10.3952118766      -17.4192565434  MEMB      69              0.0000000000
      9156        75  POPS      HX             -6.9686186617      -10.5014157115      -18.5050494047  MEMB      69              0.0000000000
      9157        75  POPS      HY             -7.3538084449      -11.1761395126      -16.8977404775  MEMB      69              0.0000000000
      9158        75  POPS      O31            -5.3649612636      -10.6285491360      -17.0956576310  MEMB      69              0.0000000000
      9159        75  POPS      C31            -4.4934078824      -10.2010050914      -17.9998015995  MEMB      69              0.0000000000
      9160        75  POPS      O32            -4.7779911160       -9.9075830761      -19.1499493777  MEMB      69              0.0000000000
      9161        75  POPS      C32            -3.1050427602      -10.1061490109      -17.3562387507  MEMB      69              0.0000000000
      9162        75  POPS      H2X            -2.4009212464       -9.7384726209      -18.1300211859  MEMB      69              0.0000000000
      9163        75  POPS      H2Y            -2.7881848683      -11.1190429285      -17.0394887730  MEMB      69              0.0000000000
      9164        75  POPS      C23            -7.1094255860       -6.8535873526      -12.5250041235  MEMB      69              0.0000000000
      9165        75  POPS      H3R            -6.8491258698       -7.1773294421      -11.4906816119  MEMB      69              0.0000000000
      9166        75  POPS      H3S            -8.2187715177       -6.8686425908      -12.6110010499  MEMB      69              0.0000000000
      9167        75  POPS      C24            -6.5813475082       -5.4299209111      -12.7174524401  MEMB      69              0.0000000000
      9168        75  POPS      H4R            -6.5471344374       -5.1801893462      -13.8045260242  MEMB      69              0.0000000000
      9169        75  POPS      H4S            -5.5350883012       -5.3922364612      -12.3459773165  MEMB      69              0.0000000000
      9170        75  POPS      C25            -7.4559614210       -4.3921041623      -12.0003050213  MEMB      69              0.0000000000
      9171        75  POPS      H5R            -7.7912511670       -4.8022153452      -11.0242816490  MEMB      69              0.0000000000
      9172        75  POPS      H5S            -8.3653228194       -4.2341840127      -12.6259112444  MEMB      69              0.0000000000
      9173        75  POPS      C26            -6.7415900616       -3.0497403320      -11.7856296082  MEMB      69              0.0000000000
      9174        75  POPS      H6R            -7.4788356976       -2.2488993018      -11.5614139788  MEMB      69              0.0000000000
      9175        75  POPS      H6S            -6.2382354392       -2.7774733610      -12.7416563585  MEMB      69              0.0000000000
      9176        75  POPS      C27            -5.7016705643       -3.0800198636      -10.6533466024  MEMB      69              0.0000000000
      9177        75  POPS      H7R            -5.0582217802       -2.1759371060      -10.7477353382  MEMB      69              0.0000000000
      9178        75  POPS      H7S            -5.0533569545       -3.9732631225      -10.7949668596  MEMB      69              0.0000000000
      9179        75  POPS      C28            -6.3366826263       -3.0906043604       -9.2481102559  MEMB      69              0.0000000000
      9180        75  POPS      H8R            -7.1592876552       -3.8368602858       -9.2355815161  MEMB      69              0.0000000000
      9181        75  POPS      H8S            -6.8015022131       -2.0930061537       -9.0801886717  MEMB      69              0.0000000000
      9182        75  POPS      C29            -5.3196735833       -3.3724835683       -8.1708247462  MEMB      69              0.0000000000
      9183        75  POPS      H91            -4.3492449238       -2.8825180848       -8.3310770549  MEMB      69              0.0000000000
      9184        75  POPS      C210           -5.4825661751       -4.1514570613       -7.0830868214  MEMB      69              0.0000000000
      9185        75  POPS      H101           -4.6403164603       -4.2629605449       -6.3824596724  MEMB      69              0.0000000000
      9186        75  POPS      C211           -6.7194869210       -4.9219290253       -6.6873852985  MEMB      69              0.0000000000
      9187        75  POPS      H11R           -7.5400988350       -4.8196600244       -7.4312744654  MEMB      69              0.0000000000
      9188        75  POPS      H11S           -7.1058980635       -4.5149353350       -5.7274540521  MEMB      69              0.0000000000
      9189        75  POPS      C212           -6.4287290662       -6.4250951369       -6.5038807523  MEMB      69              0.0000000000
      9190        75  POPS      H12R           -5.6753748207       -6.5698900560       -5.6979721591  MEMB      69              0.0000000000
      9191        75  POPS      H12S           -5.9899213875       -6.8291905970       -7.4458293135  MEMB      69              0.0000000000
      9192        75  POPS      C213           -7.6797759203       -7.2607801381       -6.1677633185  MEMB      69              0.0000000000
      9193        75  POPS      H13R           -7.3678661556       -8.3222481747       -6.0403259486  MEMB      69              0.0000000000
      9194        75  POPS      H13S           -8.3782086949       -7.2165688012       -7.0336518591  MEMB      69              0.0000000000
      9195        75  POPS      C214           -8.4397650878       -6.8167554439       -4.9043954710  MEMB      69              0.0000000000
      9196        75  POPS      H14R           -9.3632445290       -7.4328792195       -4.8114317277  MEMB      69              0.0000000000
      9197        75  POPS      H14S           -8.7663663136       -5.7594077806       -5.0075384322  MEMB      69              0.0000000000
      9198        75  POPS      C215           -7.6272158106       -6.9801197560       -3.6100544866  MEMB      69              0.0000000000
      9199        75  POPS      H15R           -6.6871501716       -6.3901663258       -3.6826502205  MEMB      69              0.0000000000
      9200        75  POPS      H15S           -7.3495268252       -8.0526877661       -3.5011101288  MEMB      69              0.0000000000
      9201        75  POPS      C216           -8.4097032455       -6.5307532724       -2.3667266448  MEMB      69              0.0000000000
      9202        75  POPS      H16R           -9.4185828188       -7.0017221101       -2.3830644932  MEMB      69              0.0000000000
      9203        75  POPS      H16S           -8.5584439676       -5.4283880499       -2.4145710254  MEMB      69              0.0000000000
      9204        75  POPS      C217           -7.7284767971       -6.8935094947       -1.0378380301  MEMB      69              0.0000000000
      9205        75  POPS      H17R           -7.6901708184       -8.0017205507       -0.9440971478  MEMB      69              0.0000000000
      9206        75  POPS      H17S           -8.3644325438       -6.5139563049       -0.2054922935  MEMB      69              0.0000000000
      9207        75  POPS      C218           -6.3128692332       -6.3368339312       -0.8793279951  MEMB      69              0.0000000000
      9208        75  POPS      H18R           -5.6127736690       -6.8383780318       -1.5779827049  MEMB      69              0.0000000000
      9209        75  POPS      H18S           -5.9379299035       -6.4935930349        0.1548039832  MEMB      69              0.0000000000
      9210        75  POPS      H18T           -6.2961225214       -5.2499582176       -1.1046342489  MEMB      69              0.0000000000
      9211        75  POPS      C33            -3.1141998487       -9.1435191837      -16.1455071245  MEMB      69              0.0000000000
      9212        75  POPS      H3X            -3.9341615468       -9.4097617478      -15.4417857619  MEMB      69              0.0000000000
      9213        75  POPS      H3Y            -3.3173561529       -8.1126465712      -16.5073379614  MEMB      69              0.0000000000
      9214        75  POPS      C34            -1.7972782643       -9.0875571123      -15.3671831682  MEMB      69              0.0000000000
      9215        75  POPS      H4X            -0.9812768821       -8.8600727343      -16.0928499063  MEMB      69              0.0000000000
      9216        75  POPS      H4Y            -1.5941107807      -10.0740668090      -14.9031354900  MEMB      69              0.0000000000
      9217        75  POPS      C35            -1.8068637462       -7.9851329326      -14.2941247814  MEMB      69              0.0000000000
      9218        75  POPS      H5X            -2.2212693536       -7.0592791063      -14.7599779513  MEMB      69              0.0000000000
      9219        75  POPS      H5Y            -0.7620089543       -7.7609670847      -13.9836187767  MEMB      69              0.0000000000
      9220        75  POPS      C36            -2.6174441103       -8.3249004240      -13.0316617259  MEMB      69              0.0000000000
      9221        75  POPS      H6X            -2.1046339280       -9.1291254135      -12.4633782630  MEMB      69              0.0000000000
      9222        75  POPS      H6Y            -3.6120971485       -8.7189386217      -13.3284846726  MEMB      69              0.0000000000
      9223        75  POPS      C37            -2.8310517387       -7.0919438848      -12.1364604389  MEMB      69              0.0000000000
      9224        75  POPS      H7X            -3.4234391429       -6.3519131487      -12.7247220973  MEMB      69              0.0000000000
      9225        75  POPS      H7Y            -1.8476292101       -6.6261487156      -11.9084639283  MEMB      69              0.0000000000
      9226        75  POPS      C38            -3.5699240989       -7.3838917696      -10.8157017265  MEMB      69              0.0000000000
      9227        75  POPS      H8X            -4.4957793942       -7.9586876881      -11.0416641765  MEMB      69              0.0000000000
      9228        75  POPS      H8Y            -3.8841265135       -6.4098380321      -10.3731012108  MEMB      69              0.0000000000
      9229        75  POPS      C39            -2.7171533705       -8.1308695921       -9.7717131276  MEMB      69              0.0000000000
      9230        75  POPS      H9X            -1.7166558675       -8.3468516251      -10.2083201241  MEMB      69              0.0000000000
      9231        75  POPS      H9Y            -3.1953356388       -9.1083581782       -9.5404717757  MEMB      69              0.0000000000
      9232        75  POPS      C310           -2.5169491648       -7.3400267890       -8.4640845839  MEMB      69              0.0000000000
      9233        75  POPS      H10X           -3.5018340397       -7.0932868876       -8.0103922148  MEMB      69              0.0000000000
      9234        75  POPS      H10Y           -2.0221316961       -6.3774892934       -8.7268679626  MEMB      69              0.0000000000
      9235        75  POPS      C311           -1.6408508024       -8.0756978147       -7.4333167470  MEMB      69              0.0000000000
      9236        75  POPS      H11X           -1.1589032563       -7.3428118345       -6.7479319124  MEMB      69              0.0000000000
      9237        75  POPS      H11Y           -0.8234682064       -8.5970528471       -7.9814952156  MEMB      69              0.0000000000
      9238        75  POPS      C312           -2.4196729720       -9.0922997755       -6.5832421424  MEMB      69              0.0000000000
      9239        75  POPS      H12X           -1.7666488606       -9.9671648730       -6.3616532872  MEMB      69              0.0000000000
      9240        75  POPS      H12Y           -3.2894960506       -9.4648588184       -7.1683931748  MEMB      69              0.0000000000
      9241        75  POPS      C313           -2.9025957761       -8.5063670801       -5.2466186176  MEMB      69              0.0000000000
      9242        75  POPS      H13X           -3.3426263005       -7.4979680428       -5.4193775286  MEMB      69              0.0000000000
      9243        75  POPS      H13Y           -2.0297178050       -8.3867742359       -4.5681413719  MEMB      69              0.0000000000
      9244        75  POPS      C314           -3.9655124088       -9.3887827215       -4.5800598837  MEMB      69              0.0000000000
      9245        75  POPS      H14X           -3.5926876358      -10.4338435574       -4.5064034293  MEMB      69              0.0000000000
      9246        75  POPS      H14Y           -4.8642191645       -9.3827999362       -5.2391313397  MEMB      69              0.0000000000
      9247        75  POPS      C315           -4.3962372633       -8.9106784525       -3.1896676100  MEMB      69              0.0000000000
      9248        75  POPS      H15X           -5.4165660108       -9.3109152742       -2.9823030001  MEMB      69              0.0000000000
      9249        75  POPS      H15Y           -4.4701257582       -7.8004282853       -3.1973645048  MEMB      69              0.0000000000
      9250        75  POPS      C316           -3.4673881361       -9.3788621841       -2.0686965737  MEMB      69              0.0000000000
      9251        75  POPS      H16X           -3.4016680839      -10.4879114635       -2.0557891917  MEMB      69              0.0000000000
      9252        75  POPS      H16Y           -3.8491959185       -9.0402393235       -1.0816786694  MEMB      69              0.0000000000
      9253        75  POPS      H16Z           -2.4455734363       -8.9683665597       -2.2104859038  MEMB      69              0.0000000000
      9254        76  POPC      N              -8.7551654382        2.1365450874      -18.7623935527  MEMB      70              0.0000000000
      9255        76  POPC      C12            -7.6946852073        1.1841351421      -18.2152604143  MEMB      70              0.0000000000
      9256        76  POPC      H12A           -8.0780633466        0.1665407648      -18.2124293250  MEMB      70              0.0000000000
      9257        76  POPC      H12B           -7.4716482694        1.4430963184      -17.1859282681  MEMB      70              0.0000000000
      9258        76  POPC      C13            -9.1044174363        1.7080002552      -20.1581530756  MEMB      70              0.0000000000
      9259        76  POPC      H13A           -9.3435826917        0.6503539446      -20.1971895678  MEMB      70              0.0000000000
      9260        76  POPC      H13B           -9.8971059310        2.2844054769      -20.6034692188  MEMB      70              0.0000000000
      9261        76  POPC      H13C           -8.2192642227        1.8705111489      -20.7817686934  MEMB      70              0.0000000000
      9262        76  POPC      C14            -9.9580412075        2.1955330383      -17.8850085407  MEMB      70              0.0000000000
      9263        76  POPC      H14A           -9.6966915657        2.3174094848      -16.8393622711  MEMB      70              0.0000000000
      9264        76  POPC      H14B          -10.5693383222        3.0623859703      -18.1294511596  MEMB      70              0.0000000000
      9265        76  POPC      H14C          -10.5674269302        1.3081125607      -17.9657433959  MEMB      70              0.0000000000
      9266        76  POPC      C15            -8.1839019548        3.5232893522      -18.8607306793  MEMB      70              0.0000000000
      9267        76  POPC      H15A           -7.8004024772        3.8485771949      -17.9040056958  MEMB      70              0.0000000000
      9268        76  POPC      H15B           -8.8770839854        4.2334682865      -19.2826702323  MEMB      70              0.0000000000
      9269        76  POPC      H15C           -7.3082092717        3.4951596648      -19.5212047001  MEMB      70              0.0000000000
      9270        76  POPC      C11            -6.3147956604        1.2089214936      -18.9153154356  MEMB      70              0.0000000000
      9271        76  POPC      H11A           -6.4328749833        1.1478171310      -20.0212184516  MEMB      70              0.0000000000
      9272        76  POPC      H11B           -5.7359714178        0.3154615179      -18.5771611855  MEMB      70              0.0000000000
      9273        76  POPC      P              -4.2500649709        2.7771445013      -19.2043714510  MEMB      70              0.0000000000
      9274        76  POPC      O13            -3.5768078214        3.7549065269      -18.3167625563  MEMB      70              0.0000000000
      9275        76  POPC      O14            -4.4398617652        3.2011783137      -20.6062539900  MEMB      70              0.0000000000
      9276        76  POPC      O12            -5.6416075309        2.4053198836      -18.5378133268  MEMB      70              0.0000000000
      9277        76  POPC      O11            -3.4611337744        1.4061345264      -19.2086085432  MEMB      70              0.0000000000
      9278        76  POPC      C1             -2.2956281754        1.2558789823      -18.4121643361  MEMB      70              0.0000000000
      9279        76  POPC      HA             -1.6786481722        2.1824798121      -18.3504222643  MEMB      70              0.0000000000
      9280        76  POPC      HB             -1.6432456710        0.4836849662      -18.8773350173  MEMB      70              0.0000000000
      9281        76  POPC      C2             -2.7064331650        0.7609995997      -17.0155139722  MEMB      70              0.0000000000
      9282        76  POPC      HS             -3.3883416541       -0.1086390776      -17.1926366698  MEMB      70              0.0000000000
      9283        76  POPC      O21            -3.3260467717        1.8306897562      -16.2562929309  MEMB      70              0.0000000000
      9284        76  POPC      C21            -4.5434504756        1.5652806580      -15.7871485127  MEMB      70              0.0000000000
      9285        76  POPC      O22            -5.1088042305        0.4883822633      -15.8635399128  MEMB      70              0.0000000000
      9286        76  POPC      C22            -5.1184105337        2.7665331524      -15.0257431969  MEMB      70              0.0000000000
      9287        76  POPC      H2R            -5.3944734465        3.5415301603      -15.7667256348  MEMB      70              0.0000000000
      9288        76  POPC      H2S            -4.3185202590        3.1696373190      -14.3742728645  MEMB      70              0.0000000000
      9289        76  POPC      C3             -1.4841718746        0.2195996415      -16.2614896883  MEMB      70              0.0000000000
      9290        76  POPC      HX             -0.7613954693        1.0535074881      -16.0913552164  MEMB      70              0.0000000000
      9291        76  POPC      HY             -0.9803686603       -0.5464971587      -16.8895670530  MEMB      70              0.0000000000
      9292        76  POPC      O31            -1.9863411276       -0.3997878228      -15.0715724117  MEMB      70              0.0000000000
      9293        76  POPC      C31            -1.8706730055        0.3213593999      -14.0011483227  MEMB      70              0.0000000000
      9294        76  POPC      O32            -0.9265700484        1.0462058682      -13.7254882920  MEMB      70              0.0000000000
      9295        76  POPC      C32            -3.0238963172       -0.0034256493      -13.0623909088  MEMB      70              0.0000000000
      9296        76  POPC      H2X            -3.0516213360       -1.1028083546      -12.9148467072  MEMB      70              0.0000000000
      9297        76  POPC      H2Y            -3.9742956907        0.2784935931      -13.5585442677  MEMB      70              0.0000000000
      9298        76  POPC      C23            -6.3448983014        2.3425263246      -14.1707583969  MEMB      70              0.0000000000
      9299        76  POPC      H3R            -6.0815443296        1.4153298717      -13.6095881885  MEMB      70              0.0000000000
      9300        76  POPC      H3S            -7.1994832865        2.0847863455      -14.8340066689  MEMB      70              0.0000000000
      9301        76  POPC      C24            -6.8010655489        3.3744156229      -13.1213633302  MEMB      70              0.0000000000
      9302        76  POPC      H4R            -7.1641775947        4.2882818255      -13.6400445610  MEMB      70              0.0000000000
      9303        76  POPC      H4S            -5.9333111858        3.6627748008      -12.4886798969  MEMB      70              0.0000000000
      9304        76  POPC      C25            -7.9159548443        2.8030929889      -12.2200469065  MEMB      70              0.0000000000
      9305        76  POPC      H5R            -7.5871602053        1.8206817954      -11.8101023196  MEMB      70              0.0000000000
      9306        76  POPC      H5S            -8.8105621263        2.6167075804      -12.8563109543  MEMB      70              0.0000000000
      9307        76  POPC      C26            -8.3474568650        3.6938872655      -11.0337095771  MEMB      70              0.0000000000
      9308        76  POPC      H6R            -9.2967079692        3.2752085386      -10.6291908175  MEMB      70              0.0000000000
      9309        76  POPC      H6S            -8.5587354139        4.7209259357      -11.3993337399  MEMB      70              0.0000000000
      9310        76  POPC      C27            -7.3213715172        3.7447682293       -9.8877923875  MEMB      70              0.0000000000
      9311        76  POPC      H7R            -6.3936939989        4.2017560728      -10.2965699689  MEMB      70              0.0000000000
      9312        76  POPC      H7S            -7.0793639353        2.7079096625       -9.5629016411  MEMB      70              0.0000000000
      9313        76  POPC      C28            -7.7319370396        4.5810756843       -8.6541741129  MEMB      70              0.0000000000
      9314        76  POPC      H8R            -7.8521868686        5.6381805652       -8.9783377434  MEMB      70              0.0000000000
      9315        76  POPC      H8S            -6.8667850191        4.5767873004       -7.9521104249  MEMB      70              0.0000000000
      9316        76  POPC      C29            -8.9830649963        4.1289185434       -7.9397026212  MEMB      70              0.0000000000
      9317        76  POPC      H91            -9.9239934642        4.4891761113       -8.3825731959  MEMB      70              0.0000000000
      9318        76  POPC      C210           -9.0530052745        3.3317845188       -6.8566341169  MEMB      70              0.0000000000
      9319        76  POPC      H101          -10.0441270804        3.1089281157       -6.4274074787  MEMB      70              0.0000000000
      9320        76  POPC      C211           -7.8950621387        2.7067504981       -6.1190507728  MEMB      70              0.0000000000
      9321        76  POPC      H11R           -7.0208557131        2.5808296744       -6.7964089715  MEMB      70              0.0000000000
      9322        76  POPC      H11S           -8.1836031059        1.6793525102       -5.8001071104  MEMB      70              0.0000000000
      9323        76  POPC      C212           -7.4191249766        3.4746845722       -4.8661037727  MEMB      70              0.0000000000
      9324        76  POPC      H12R           -6.9523162524        4.4397126814       -5.1628982631  MEMB      70              0.0000000000
      9325        76  POPC      H12S           -6.6329587035        2.8552744466       -4.3767181956  MEMB      70              0.0000000000
      9326        76  POPC      C213           -8.5307491721        3.7484771292       -3.8416456101  MEMB      70              0.0000000000
      9327        76  POPC      H13R           -9.2441127587        2.8940038774       -3.8627365205  MEMB      70              0.0000000000
      9328        76  POPC      H13S           -9.0785342081        4.6628295285       -4.1416781196  MEMB      70              0.0000000000
      9329        76  POPC      C214           -8.0406868259        3.9212546828       -2.3943493777  MEMB      70              0.0000000000
      9330        76  POPC      H14R           -7.3734460774        3.0666921757       -2.1524000978  MEMB      70              0.0000000000
      9331        76  POPC      H14S           -8.9228400028        3.8689817053       -1.7170085496  MEMB      70              0.0000000000
      9332        76  POPC      C215           -7.3301232671        5.2545347455       -2.1168398426  MEMB      70              0.0000000000
      9333        76  POPC      H15R           -8.0317732628        6.0959604484       -2.2994345054  MEMB      70              0.0000000000
      9334        76  POPC      H15S           -6.4970438471        5.3779801714       -2.8356547414  MEMB      70              0.0000000000
      9335        76  POPC      C216           -6.7696389140        5.3776989104       -0.6880192981  MEMB      70              0.0000000000
      9336        76  POPC      H16R           -7.6053520415        5.4678930661        0.0412131088  MEMB      70              0.0000000000
      9337        76  POPC      H16S           -6.1755548550        6.3198127078       -0.6365837682  MEMB      70              0.0000000000
      9338        76  POPC      C217           -5.8732088509        4.1982608341       -0.2773484624  MEMB      70              0.0000000000
      9339        76  POPC      H17R           -5.3700432732        3.8076916831       -1.1905999651  MEMB      70              0.0000000000
      9340        76  POPC      H17S           -6.5082597540        3.3769710614        0.1237650610  MEMB      70              0.0000000000
      9341        76  POPC      C218           -4.7903200746        4.5661426838        0.7395760207  MEMB      70              0.0000000000
      9342        76  POPC      H18R           -4.1539811642        5.3857625932        0.3439546672  MEMB      70              0.0000000000
      9343        76  POPC      H18S           -4.1264850491        3.6999646531        0.9340780487  MEMB      70              0.0000000000
      9344        76  POPC      H18T           -5.2364505635        4.9093361597        1.6958142512  MEMB      70              0.0000000000
      9345        76  POPC      C33            -2.8968790390        0.7279363321      -11.7155191619  MEMB      70              0.0000000000
      9346        76  POPC      H3X            -1.9604875335        1.3209586943      -11.6439906032  MEMB      70              0.0000000000
      9347        76  POPC      H3Y            -2.8924819534       -0.0291629719      -10.9019582472  MEMB      70              0.0000000000
      9348        76  POPC      C34            -4.0235682140        1.7277015472      -11.4615616299  MEMB      70              0.0000000000
      9349        76  POPC      H4X            -4.9772030807        1.1858776096      -11.2783515634  MEMB      70              0.0000000000
      9350        76  POPC      H4Y            -4.1606378574        2.3549246681      -12.3680794413  MEMB      70              0.0000000000
      9351        76  POPC      C35            -3.7008998755        2.6687541568      -10.2988126158  MEMB      70              0.0000000000
      9352        76  POPC      H5X            -4.6156210661        3.2152025352       -9.9893056540  MEMB      70              0.0000000000
      9353        76  POPC      H5Y            -2.9619899137        3.4308137003      -10.6480011898  MEMB      70              0.0000000000
      9354        76  POPC      C36            -3.1039752182        1.9600468579       -9.0789848429  MEMB      70              0.0000000000
      9355        76  POPC      H6X            -2.8865419359        2.7287100114       -8.3141296221  MEMB      70              0.0000000000
      9356        76  POPC      H6Y            -2.1197500956        1.5484876821       -9.3497131674  MEMB      70              0.0000000000
      9357        76  POPC      C37            -3.9903742521        0.8625470167       -8.4768620995  MEMB      70              0.0000000000
      9358        76  POPC      H7X            -3.5867249271       -0.1397509257       -8.7372361414  MEMB      70              0.0000000000
      9359        76  POPC      H7Y            -5.0164763475        0.9213982346       -8.9102801359  MEMB      70              0.0000000000
      9360        76  POPC      C38            -4.1152181091        1.0041841891       -6.9576742577  MEMB      70              0.0000000000
      9361        76  POPC      H8X            -4.8785064538        1.7825718028       -6.7303492947  MEMB      70              0.0000000000
      9362        76  POPC      H8Y            -3.1548945891        1.3620330933       -6.5338863444  MEMB      70              0.0000000000
      9363        76  POPC      C39            -4.5071423546       -0.2929034139       -6.2534487850  MEMB      70              0.0000000000
      9364        76  POPC      H9X            -3.8977002465       -1.1401070707       -6.6386624555  MEMB      70              0.0000000000
      9365        76  POPC      H9Y            -5.5758059133       -0.5235359056       -6.4734080394  MEMB      70              0.0000000000
      9366        76  POPC      C310           -4.2929897858       -0.1797624209       -4.7429684988  MEMB      70              0.0000000000
      9367        76  POPC      H10X           -4.8653970642        0.6953913454       -4.3550136481  MEMB      70              0.0000000000
      9368        76  POPC      H10Y           -3.2147338358       -0.0053306512       -4.5448713911  MEMB      70              0.0000000000
      9369        76  POPC      C311           -4.7398355749       -1.4346029554       -3.9917901944  MEMB      70              0.0000000000
      9370        76  POPC      H11X           -4.2770564379       -2.3404186932       -4.4445443301  MEMB      70              0.0000000000
      9371        76  POPC      H11Y           -5.8427124514       -1.5418918759       -4.1131636194  MEMB      70              0.0000000000
      9372        76  POPC      C312           -4.3833284618       -1.3653155552       -2.5016348758  MEMB      70              0.0000000000
      9373        76  POPC      H12X           -4.0690553925       -0.3299332605       -2.2490603346  MEMB      70              0.0000000000
      9374        76  POPC      H12Y           -3.5262495580       -2.0538869181       -2.3183056340  MEMB      70              0.0000000000
      9375        76  POPC      C313           -5.5455373796       -1.7571878663       -1.5803861075  MEMB      70              0.0000000000
      9376        76  POPC      H13X           -5.1601438825       -1.9856839454       -0.5639497847  MEMB      70              0.0000000000
      9377        76  POPC      H13Y           -6.0001946843       -2.6959909980       -1.9733835706  MEMB      70              0.0000000000
      9378        76  POPC      C314           -6.6465120941       -0.6870018305       -1.4808928641  MEMB      70              0.0000000000
      9379        76  POPC      H14X           -7.5716179607       -1.1588276287       -1.0750659217  MEMB      70              0.0000000000
      9380        76  POPC      H14Y           -6.8901819376       -0.3115218608       -2.4998518777  MEMB      70              0.0000000000
      9381        76  POPC      C315           -6.3001153096        0.5101423126       -0.5828772489  MEMB      70              0.0000000000
      9382        76  POPC      H15X           -7.0697850640        1.2956700462       -0.7651140669  MEMB      70              0.0000000000
      9383        76  POPC      H15Y           -5.3244857262        0.9491336745       -0.8769809075  MEMB      70              0.0000000000
      9384        76  POPC      C316           -6.3126862039        0.1877607639        0.9111548480  MEMB      70              0.0000000000
      9385        76  POPC      H16X           -7.2831890228       -0.2766988848        1.1888281426  MEMB      70              0.0000000000
      9386        76  POPC      H16Y           -6.2059794279        1.1162619315        1.5098323327  MEMB      70              0.0000000000
      9387        76  POPC      H16Z           -5.5103925942       -0.5230950293        1.1858961208  MEMB      70              0.0000000000
      9388        77  POPC      N               6.6357029925       13.7311499354      -20.7128401302  MEMB      71              0.0000000000
      9389        77  POPC      C12             5.5837194524       12.6283749544      -20.9035020711  MEMB      71              0.0000000000
      9390        77  POPC      H12A            5.2297740947       12.6280088682      -21.9340504846  MEMB      71              0.0000000000
      9391        77  POPC      H12B            4.7119188412       12.8814182121      -20.2991346973  MEMB      71              0.0000000000
      9392        77  POPC      C13             7.0303234548       13.7800219251      -19.2802570063  MEMB      71              0.0000000000
      9393        77  POPC      H13A            7.9545446846       14.3193456359      -19.1583643814  MEMB      71              0.0000000000
      9394        77  POPC      H13B            6.2378802938       14.2021101816      -18.6742864408  MEMB      71              0.0000000000
      9395        77  POPC      H13C            7.1229385907       12.7391856934      -18.9665906818  MEMB      71              0.0000000000
      9396        77  POPC      C14             7.8392715886       13.4976419542      -21.5834045018  MEMB      71              0.0000000000
      9397        77  POPC      H14A            8.3140898542       12.5409534576      -21.3607576066  MEMB      71              0.0000000000
      9398        77  POPC      H14B            7.5410566885       13.4882667335      -22.6337448636  MEMB      71              0.0000000000
      9399        77  POPC      H14C            8.5789387464       14.2823440259      -21.4896783107  MEMB      71              0.0000000000
      9400        77  POPC      C15             6.0278717820       15.0336671286      -21.1040091555  MEMB      71              0.0000000000
      9401        77  POPC      H15A            5.6962388925       14.9951303064      -22.1392631710  MEMB      71              0.0000000000
      9402        77  POPC      H15B            6.7259558695       15.8562194585      -21.0586685829  MEMB      71              0.0000000000
      9403        77  POPC      H15C            5.1424131869       15.2930522343      -20.5234535130  MEMB      71              0.0000000000
      9404        77  POPC      C11             5.9588309856       11.1869720062      -20.4670705500  MEMB      71              0.0000000000
      9405        77  POPC      H11A            6.9393865211       10.9000691934      -20.9120257884  MEMB      71              0.0000000000
      9406        77  POPC      H11B            5.1881145705       10.4818019762      -20.8569468968  MEMB      71              0.0000000000
      9407        77  POPC      P               6.5937025444        9.8496947054      -18.2961462285  MEMB      71              0.0000000000
      9408        77  POPC      O13             5.8842888050        8.6269587687      -18.7258750666  MEMB      71              0.0000000000
      9409        77  POPC      O14             6.6401797892       10.2042263299      -16.8618879269  MEMB      71              0.0000000000
      9410        77  POPC      O12             5.9737767112       11.1106068744      -19.0442993009  MEMB      71              0.0000000000
      9411        77  POPC      O11             8.0834912957        9.8987344276      -18.8616355385  MEMB      71              0.0000000000
      9412        77  POPC      C1              9.0155880612       10.8604598532      -18.3410291992  MEMB      71              0.0000000000
      9413        77  POPC      HA              8.6478348092       11.3757315580      -17.4176748822  MEMB      71              0.0000000000
      9414        77  POPC      HB              9.1939989453       11.6423157656      -19.1080358071  MEMB      71              0.0000000000
      9415        77  POPC      C2             10.3893124475       10.2258477856      -17.9712042699  MEMB      71              0.0000000000
      9416        77  POPC      HS             10.8704402217        9.9071838735      -18.9231448207  MEMB      71              0.0000000000
      9417        77  POPC      O21            10.2073212064        9.0995318488      -17.0944368561  MEMB      71              0.0000000000
      9418        77  POPC      C21             9.7466402212        7.9883592850      -17.6988977770  MEMB      71              0.0000000000
      9419        77  POPC      O22             9.8570090060        7.7444378081      -18.8913853713  MEMB      71              0.0000000000
      9420        77  POPC      C22             9.2389938722        7.0036426633      -16.6440988932  MEMB      71              0.0000000000
      9421        77  POPC      H2R            10.1238005404        6.5827172666      -16.1296315130  MEMB      71              0.0000000000
      9422        77  POPC      H2S             8.7199765736        6.1799461622      -17.1791233448  MEMB      71              0.0000000000
      9423        77  POPC      C3             11.3404976766       11.2793435704      -17.3054413773  MEMB      71              0.0000000000
      9424        77  POPC      HX             11.6381855114       11.9823506880      -18.1137118297  MEMB      71              0.0000000000
      9425        77  POPC      HY             12.2698984196       10.7780565513      -16.9661516189  MEMB      71              0.0000000000
      9426        77  POPC      O31            10.7002981450       12.0449987072      -16.2626032682  MEMB      71              0.0000000000
      9427        77  POPC      C31            11.1666368162       11.9415425961      -15.0223049048  MEMB      71              0.0000000000
      9428        77  POPC      O32            12.1169728791       11.2782344747      -14.6588101586  MEMB      71              0.0000000000
      9429        77  POPC      C32            10.4001499753       12.9520770021      -14.1731442713  MEMB      71              0.0000000000
      9430        77  POPC      H2X             9.3272057942       12.8813801552      -14.4487372852  MEMB      71              0.0000000000
      9431        77  POPC      H2Y            10.7656525801       13.9649685976      -14.4388382472  MEMB      71              0.0000000000
      9432        77  POPC      C23             8.2586408014        7.6339634682      -15.6215496445  MEMB      71              0.0000000000
      9433        77  POPC      H3R             7.2299156974        7.5753904288      -16.0512854530  MEMB      71              0.0000000000
      9434        77  POPC      H3S             8.4671789994        8.7176142642      -15.4647839692  MEMB      71              0.0000000000
      9435        77  POPC      C24             8.2661913215        6.9618987490      -14.2373117473  MEMB      71              0.0000000000
      9436        77  POPC      H4R             8.1214585368        5.8676192558      -14.3365986808  MEMB      71              0.0000000000
      9437        77  POPC      H4S             7.3818536382        7.3453981607      -13.6771803971  MEMB      71              0.0000000000
      9438        77  POPC      C25             9.5231815575        7.2921509240      -13.4227899148  MEMB      71              0.0000000000
      9439        77  POPC      H5R            10.2560064456        7.7580504210      -14.0965627653  MEMB      71              0.0000000000
      9440        77  POPC      H5S            10.0046464572        6.3777317400      -13.0202964676  MEMB      71              0.0000000000
      9441        77  POPC      C26             9.2081886526        8.2809656140      -12.3017859589  MEMB      71              0.0000000000
      9442        77  POPC      H6R             8.5095706495        7.7957806973      -11.5879054279  MEMB      71              0.0000000000
      9443        77  POPC      H6S             8.6736886733        9.1501845668      -12.7491167227  MEMB      71              0.0000000000
      9444        77  POPC      C27            10.4360083277        8.8035386104      -11.5431912787  MEMB      71              0.0000000000
      9445        77  POPC      H7R            11.0040420864        9.4899886646      -12.2112875656  MEMB      71              0.0000000000
      9446        77  POPC      H7S            11.1161563866        7.9581851961      -11.2961922725  MEMB      71              0.0000000000
      9447        77  POPC      C28            10.0624520186        9.5313644660      -10.2346699697  MEMB      71              0.0000000000
      9448        77  POPC      H8R            10.8882454570       10.2286192119       -9.9701572331  MEMB      71              0.0000000000
      9449        77  POPC      H8S            10.0371949370        8.7566233468       -9.4354855758  MEMB      71              0.0000000000
      9450        77  POPC      C29             8.7440613562       10.2693416472      -10.3208670115  MEMB      71              0.0000000000
      9451        77  POPC      H91             8.5863238732       10.8363941016      -11.2520971379  MEMB      71              0.0000000000
      9452        77  POPC      C210            7.7797100311       10.2850071561       -9.3827923355  MEMB      71              0.0000000000
      9453        77  POPC      H101            6.8560496559       10.8562335631       -9.5627596702  MEMB      71              0.0000000000
      9454        77  POPC      C211            7.8618189354        9.5587500265       -8.0670652555  MEMB      71              0.0000000000
      9455        77  POPC      H11R            8.2660959828        8.5374815727       -8.2314310386  MEMB      71              0.0000000000
      9456        77  POPC      H11S            6.8545696651        9.4230312564       -7.6178769895  MEMB      71              0.0000000000
      9457        77  POPC      C212            8.7842866463       10.2868299915       -7.0704965945  MEMB      71              0.0000000000
      9458        77  POPC      H12R            8.2038310377       11.0432959321       -6.5003984715  MEMB      71              0.0000000000
      9459        77  POPC      H12S            9.5848238459       10.8371885501       -7.6181239225  MEMB      71              0.0000000000
      9460        77  POPC      C213            9.4914254767        9.3254504550       -6.1058790667  MEMB      71              0.0000000000
      9461        77  POPC      H13R            9.9496645399        8.5020872011       -6.7001876897  MEMB      71              0.0000000000
      9462        77  POPC      H13S            8.7461823288        8.8705880980       -5.4185893878  MEMB      71              0.0000000000
      9463        77  POPC      C214           10.6038512635       10.0262210835       -5.3145023493  MEMB      71              0.0000000000
      9464        77  POPC      H14R           10.1755458788       10.8070594451       -4.6507821782  MEMB      71              0.0000000000
      9465        77  POPC      H14S           11.2616588788       10.5473737599       -6.0480539299  MEMB      71              0.0000000000
      9466        77  POPC      C215           11.4750768327        9.0596492106       -4.5009964346  MEMB      71              0.0000000000
      9467        77  POPC      H15R           12.5195682617        9.4436797279       -4.5286668307  MEMB      71              0.0000000000
      9468        77  POPC      H15S           11.4772770898        8.0551241635       -4.9781479536  MEMB      71              0.0000000000
      9469        77  POPC      C216           11.0910070316        8.9439889306       -3.0202145387  MEMB      71              0.0000000000
      9470        77  POPC      H16R           11.2810058487        9.9211400269       -2.5229109838  MEMB      71              0.0000000000
      9471        77  POPC      H16S           11.7580870612        8.1967289114       -2.5358923575  MEMB      71              0.0000000000
      9472        77  POPC      C217            9.6323885974        8.5534207204       -2.7612473451  MEMB      71              0.0000000000
      9473        77  POPC      H17R            9.3959837947        7.6055641737       -3.2950831317  MEMB      71              0.0000000000
      9474        77  POPC      H17S            8.9650654379        9.3470154030       -3.1695024083  MEMB      71              0.0000000000
      9475        77  POPC      C218            9.3496417221        8.3977575203       -1.2690361732  MEMB      71              0.0000000000
      9476        77  POPC      H18R            8.2621534527        8.3034072303       -1.0758882093  MEMB      71              0.0000000000
      9477        77  POPC      H18S            9.7275432072        9.2882270071       -0.7294510583  MEMB      71              0.0000000000
      9478        77  POPC      H18T            9.8713255283        7.5105163165       -0.8520923562  MEMB      71              0.0000000000
      9479        77  POPC      C33            10.5367552697       12.7372776627      -12.6537761221  MEMB      71              0.0000000000
      9480        77  POPC      H3X            11.6056325315       12.8236465867      -12.3503161176  MEMB      71              0.0000000000
      9481        77  POPC      H3Y            10.1935038419       11.7120890904      -12.3949323063  MEMB      71              0.0000000000
      9482        77  POPC      C34             9.7044021171       13.7771502424      -11.8839297306  MEMB      71              0.0000000000
      9483        77  POPC      H4X             8.6634867646       13.8006594078      -12.2747258541  MEMB      71              0.0000000000
      9484        77  POPC      H4Y            10.1594224432       14.7723858863      -12.0881511538  MEMB      71              0.0000000000
      9485        77  POPC      C35             9.6639025954       13.5303019288      -10.3689409651  MEMB      71              0.0000000000
      9486        77  POPC      H5X            10.5785889253       12.9638626755      -10.0907247756  MEMB      71              0.0000000000
      9487        77  POPC      H5Y             8.8006803578       12.8890732533      -10.1011900120  MEMB      71              0.0000000000
      9488        77  POPC      C36             9.6058191370       14.8132337504       -9.5276990079  MEMB      71              0.0000000000
      9489        77  POPC      H6X            10.0710124039       15.6462196093      -10.0989059323  MEMB      71              0.0000000000
      9490        77  POPC      H6Y            10.2238222004       14.6778196830       -8.6141295546  MEMB      71              0.0000000000
      9491        77  POPC      C37             8.1825554229       15.2180922368       -9.1143304923  MEMB      71              0.0000000000
      9492        77  POPC      H7X             7.5128148978       15.1877123895      -10.0013336643  MEMB      71              0.0000000000
      9493        77  POPC      H7Y             8.2241704211       16.2718188062       -8.7701025600  MEMB      71              0.0000000000
      9494        77  POPC      C38             7.5667425276       14.4032641114       -7.9627945317  MEMB      71              0.0000000000
      9495        77  POPC      H8X             7.3295281168       13.3717213181       -8.3039915551  MEMB      71              0.0000000000
      9496        77  POPC      H8Y             6.6062497561       14.8919338580       -7.6789331059  MEMB      71              0.0000000000
      9497        77  POPC      C39             8.4692962386       14.3302065711       -6.7218890858  MEMB      71              0.0000000000
      9498        77  POPC      H9X             8.9365804700       15.3257851354       -6.5464055262  MEMB      71              0.0000000000
      9499        77  POPC      H9Y             9.2893759927       13.6012005460       -6.9164640481  MEMB      71              0.0000000000
      9500        77  POPC      C310            7.7253694395       13.9130374775       -5.4478469510  MEMB      71              0.0000000000
      9501        77  POPC      H10X            7.1656842203       12.9704704364       -5.6419951546  MEMB      71              0.0000000000
      9502        77  POPC      H10Y            6.9906833389       14.7019415082       -5.1715452330  MEMB      71              0.0000000000
      9503        77  POPC      C311            8.6879084231       13.6829110825       -4.2782788036  MEMB      71              0.0000000000
      9504        77  POPC      H11X            9.3000610552       14.5971955614       -4.1081484605  MEMB      71              0.0000000000
      9505        77  POPC      H11Y            9.3806109900       12.8578367092       -4.5586545231  MEMB      71              0.0000000000
      9506        77  POPC      C312            7.9751896848       13.3120175609       -2.9736805292  MEMB      71              0.0000000000
      9507        77  POPC      H12X            7.2099742778       12.5294794355       -3.1753557184  MEMB      71              0.0000000000
      9508        77  POPC      H12Y            7.4529355247       14.2122420209       -2.5795322152  MEMB      71              0.0000000000
      9509        77  POPC      C313            8.9557714835       12.7799823261       -1.9224638240  MEMB      71              0.0000000000
      9510        77  POPC      H13X            9.8320385208       13.4632504028       -1.8690764684  MEMB      71              0.0000000000
      9511        77  POPC      H13Y            9.3230301102       11.7789162897       -2.2415640415  MEMB      71              0.0000000000
      9512        77  POPC      C314            8.3417696971       12.6918254924       -0.5234752481  MEMB      71              0.0000000000
      9513        77  POPC      H14X            7.3545405824       12.1808395726       -0.5693213351  MEMB      71              0.0000000000
      9514        77  POPC      H14Y            8.1759443649       13.7317150516       -0.1572260536  MEMB      71              0.0000000000
      9515        77  POPC      C315            9.2363543422       11.9483832675        0.4690785120  MEMB      71              0.0000000000
      9516        77  POPC      H15X           10.3025022126       12.0951993823        0.1908825944  MEMB      71              0.0000000000
      9517        77  POPC      H15Y            9.0205818357       10.8623417198        0.3901516841  MEMB      71              0.0000000000
      9518        77  POPC      C316            9.0232368579       12.3973281778        1.9101168181  MEMB      71              0.0000000000
      9519        77  POPC      H16X            9.7422466147       11.9041817975        2.5978338663  MEMB      71              0.0000000000
      9520        77  POPC      H16Y            7.9940316683       12.1436084937        2.2322072323  MEMB      71              0.0000000000
      9521        77  POPC      H16Z            9.1447992584       13.4968915466        1.9983000735  MEMB      71              0.0000000000
      9522        78  POPC      N               3.3035827156      -11.6573256295      -20.2411594518  MEMB      72              0.0000000000
      9523        78  POPC      C12             3.6422101777      -12.0171796237      -18.8020993904  MEMB      72              0.0000000000
      9524        78  POPC      H12A            2.7956085885      -12.5613168111      -18.4015498788  MEMB      72              0.0000000000
      9525        78  POPC      H12B            3.7374812948      -11.0939176433      -18.2358473840  MEMB      72              0.0000000000
      9526        78  POPC      C13             4.4958786451      -11.0207088712      -20.8944970561  MEMB      72              0.0000000000
      9527        78  POPC      H13A            4.8576800782      -10.2066756801      -20.2644636944  MEMB      72              0.0000000000
      9528        78  POPC      H13B            5.3005663185      -11.7485804220      -21.0004393353  MEMB      72              0.0000000000
      9529        78  POPC      H13C            4.2157701667      -10.6049625905      -21.8562334847  MEMB      72              0.0000000000
      9530        78  POPC      C14             2.9237763280      -12.8860262915      -21.0016510687  MEMB      72              0.0000000000
      9531        78  POPC      H14A            3.6569496262      -13.6659729159      -20.7929290972  MEMB      72              0.0000000000
      9532        78  POPC      H14B            1.9755850668      -13.2681811749      -20.6468270735  MEMB      72              0.0000000000
      9533        78  POPC      H14C            2.9148571476      -12.7379884530      -22.0722039426  MEMB      72              0.0000000000
      9534        78  POPC      C15             2.1563397303      -10.6849299919      -20.2576188591  MEMB      72              0.0000000000
      9535        78  POPC      H15A            1.9959411864      -10.2540513774      -21.2389401754  MEMB      72              0.0000000000
      9536        78  POPC      H15B            2.3886215858       -9.8172243258      -19.6266419540  MEMB      72              0.0000000000
      9537        78  POPC      H15C            1.2494531313      -11.1067135173      -19.8496397231  MEMB      72              0.0000000000
      9538        78  POPC      C11             4.8632012238      -12.9487037699      -18.5022121170  MEMB      72              0.0000000000
      9539        78  POPC      H11A            4.9543903782      -13.0913348127      -17.3988883933  MEMB      72              0.0000000000
      9540        78  POPC      H11B            5.7881356898      -12.4137776462      -18.8036225587  MEMB      72              0.0000000000
      9541        78  POPC      P               3.8223994485      -15.3657515968      -18.6856251714  MEMB      72              0.0000000000
      9542        78  POPC      O13             4.4558340624      -16.1889280996      -17.6448751340  MEMB      72              0.0000000000
      9543        78  POPC      O14             3.2806647168      -15.9923417049      -19.9131285568  MEMB      72              0.0000000000
      9544        78  POPC      O12             4.8042168922      -14.2219732386      -19.1627779992  MEMB      72              0.0000000000
      9545        78  POPC      O11             2.7105833537      -14.4447307504      -18.0622112436  MEMB      72              0.0000000000
      9546        78  POPC      C1              1.3290666831      -14.7537060674      -18.2095236034  MEMB      72              0.0000000000
      9547        78  POPC      HA              1.1150142924      -15.7384657686      -18.7012316752  MEMB      72              0.0000000000
      9548        78  POPC      HB              0.8612442076      -13.9713687537      -18.8424144064  MEMB      72              0.0000000000
      9549        78  POPC      C2              0.6196312150      -14.7865101353      -16.8312792915  MEMB      72              0.0000000000
      9550        78  POPC      HS             -0.4669041930      -14.6844518222      -17.0403464596  MEMB      72              0.0000000000
      9551        78  POPC      O21             1.0663382010      -13.7393540366      -15.9419096761  MEMB      72              0.0000000000
      9552        78  POPC      C21             0.7652339143      -12.5080605909      -16.2777596325  MEMB      72              0.0000000000
      9553        78  POPC      O22             0.0819090396      -12.1803035981      -17.2367537757  MEMB      72              0.0000000000
      9554        78  POPC      C22             1.1454688735      -11.6180009906      -15.0932203314  MEMB      72              0.0000000000
      9555        78  POPC      H2R             0.9769610301      -10.5647856309      -15.3808945506  MEMB      72              0.0000000000
      9556        78  POPC      H2S             2.2185709305      -11.7601287590      -14.8704519186  MEMB      72              0.0000000000
      9557        78  POPC      C3              0.8084511996      -16.1520944742      -16.1058838073  MEMB      72              0.0000000000
      9558        78  POPC      HX              0.6414293804      -16.9782087414      -16.8373453460  MEMB      72              0.0000000000
      9559        78  POPC      HY              0.0064061138      -16.2275167879      -15.3401510030  MEMB      72              0.0000000000
      9560        78  POPC      O31             2.1373996868      -16.2621884062      -15.5405049371  MEMB      72              0.0000000000
      9561        78  POPC      C31             2.2866413993      -15.7511021760      -14.3393320491  MEMB      72              0.0000000000
      9562        78  POPC      O32             1.4002521532      -15.5046814519      -13.5397548885  MEMB      72              0.0000000000
      9563        78  POPC      C32             3.7775752891      -15.4816066186      -14.1013013893  MEMB      72              0.0000000000
      9564        78  POPC      H2X             4.1798217027      -15.0625024547      -15.0497301499  MEMB      72              0.0000000000
      9565        78  POPC      H2Y             4.2831839833      -16.4488632643      -13.9293924726  MEMB      72              0.0000000000
      9566        78  POPC      C23             0.2939602918      -11.9931034802      -13.8492519975  MEMB      72              0.0000000000
      9567        78  POPC      H3R             0.5095702321      -13.0477701690      -13.5553667500  MEMB      72              0.0000000000
      9568        78  POPC      H3S            -0.7868877576      -11.9466051136      -14.1057211667  MEMB      72              0.0000000000
      9569        78  POPC      C24             0.5332478460      -11.1073501198      -12.6196269904  MEMB      72              0.0000000000
      9570        78  POPC      H4R             0.3299694948      -10.0447285098      -12.8793295435  MEMB      72              0.0000000000
      9571        78  POPC      H4S             1.6028897554      -11.1894845864      -12.3326556725  MEMB      72              0.0000000000
      9572        78  POPC      C25            -0.3475996938      -11.5154893936      -11.4219101684  MEMB      72              0.0000000000
      9573        78  POPC      H5R            -0.2556467389      -12.6131344042      -11.2524932117  MEMB      72              0.0000000000
      9574        78  POPC      H5S            -1.4124749172      -11.3148788187      -11.6781493233  MEMB      72              0.0000000000
      9575        78  POPC      C26             0.0095814069      -10.7805528037      -10.1174410180  MEMB      72              0.0000000000
      9576        78  POPC      H6R            -0.8213682604      -10.9012667302       -9.3842156566  MEMB      72              0.0000000000
      9577        78  POPC      H6S             0.1180721492       -9.6945698435      -10.3300912654  MEMB      72              0.0000000000
      9578        78  POPC      C27             1.2996299095      -11.3212999082       -9.4856884275  MEMB      72              0.0000000000
      9579        78  POPC      H7R             2.0639881372      -11.4417344968      -10.2853057400  MEMB      72              0.0000000000
      9580        78  POPC      H7S             1.0898111703      -12.3379600699       -9.0818495334  MEMB      72              0.0000000000
      9581        78  POPC      C28             1.8729122955      -10.4044844654       -8.3954317698  MEMB      72              0.0000000000
      9582        78  POPC      H8R             1.0965877861      -10.2380012118       -7.6154572117  MEMB      72              0.0000000000
      9583        78  POPC      H8S             2.1041681998       -9.4173691274       -8.8546418013  MEMB      72              0.0000000000
      9584        78  POPC      C29             3.1264170965      -11.0090318117       -7.8209073668  MEMB      72              0.0000000000
      9585        78  POPC      H91             3.7412245020      -11.5794602432       -8.5356967710  MEMB      72              0.0000000000
      9586        78  POPC      C210            3.5474364721      -10.8953060012       -6.5533520895  MEMB      72              0.0000000000
      9587        78  POPC      H101            4.4685942670      -11.4106260853       -6.2390262209  MEMB      72              0.0000000000
      9588        78  POPC      C211            2.8243151668      -10.1294553120       -5.4833265416  MEMB      72              0.0000000000
      9589        78  POPC      H11R            1.9246537205      -10.6921888066       -5.1464598863  MEMB      72              0.0000000000
      9590        78  POPC      H11S            2.4669465296       -9.1535848608       -5.8763396874  MEMB      72              0.0000000000
      9591        78  POPC      C212            3.7148566258       -9.8581358789       -4.2607190064  MEMB      72              0.0000000000
      9592        78  POPC      H12R            3.1697696217       -9.1162281111       -3.6389853226  MEMB      72              0.0000000000
      9593        78  POPC      H12S            4.6756361875       -9.3822213665       -4.5549094951  MEMB      72              0.0000000000
      9594        78  POPC      C213            3.9783307443      -11.1325604504       -3.4430457810  MEMB      72              0.0000000000
      9595        78  POPC      H13R            4.8330639428      -11.6878722639       -3.8804293020  MEMB      72              0.0000000000
      9596        78  POPC      H13S            3.0911570085      -11.7942241400       -3.5409475144  MEMB      72              0.0000000000
      9597        78  POPC      C214            4.1813334949      -10.8954126913       -1.9387460084  MEMB      72              0.0000000000
      9598        78  POPC      H14R            5.1287237541      -10.3423165806       -1.7718418935  MEMB      72              0.0000000000
      9599        78  POPC      H14S            4.2790473289      -11.8880921804       -1.4424221548  MEMB      72              0.0000000000
      9600        78  POPC      C215            2.9980654967      -10.1414479860       -1.3092377288  MEMB      72              0.0000000000
      9601        78  POPC      H15R            2.0634254497      -10.4688389486       -1.8184507123  MEMB      72              0.0000000000
      9602        78  POPC      H15S            3.1170642762       -9.0506284817       -1.4973178912  MEMB      72              0.0000000000
      9603        78  POPC      C216            2.8179080681      -10.3653921026        0.1965767671  MEMB      72              0.0000000000
      9604        78  POPC      H16R            3.7721212242      -10.1420053234        0.7206857109  MEMB      72              0.0000000000
      9605        78  POPC      H16S            2.5784202962      -11.4351155428        0.3857097521  MEMB      72              0.0000000000
      9606        78  POPC      C217            1.7038444257       -9.4798786598        0.7765460169  MEMB      72              0.0000000000
      9607        78  POPC      H17R            1.8925632574       -8.4242373685        0.4780454457  MEMB      72              0.0000000000
      9608        78  POPC      H17S            1.7531246964       -9.5119484052        1.8842252016  MEMB      72              0.0000000000
      9609        78  POPC      C218            0.2922939986       -9.8932841376        0.3505960217  MEMB      72              0.0000000000
      9610        78  POPC      H18R           -0.4679406358       -9.2909407812        0.8914542490  MEMB      72              0.0000000000
      9611        78  POPC      H18S            0.1075202166      -10.9588897595        0.5900127669  MEMB      72              0.0000000000
      9612        78  POPC      H18T            0.1500505981       -9.7530066618       -0.7421509774  MEMB      72              0.0000000000
      9613        78  POPC      C33             4.0949759721      -14.4967625859      -12.9455786499  MEMB      72              0.0000000000
      9614        78  POPC      H3X             3.4582192223      -13.5870623096      -12.9998722057  MEMB      72              0.0000000000
      9615        78  POPC      H3Y             5.1499804489      -14.1671200898      -13.0859148242  MEMB      72              0.0000000000
      9616        78  POPC      C34             4.0144539056      -15.1144585291      -11.5367395744  MEMB      72              0.0000000000
      9617        78  POPC      H4X             4.4999400428      -16.1171968190      -11.5443546424  MEMB      72              0.0000000000
      9618        78  POPC      H4Y             2.9460502885      -15.2525773477      -11.2590725725  MEMB      72              0.0000000000
      9619        78  POPC      C35             4.7261076500      -14.2459542412      -10.4851596629  MEMB      72              0.0000000000
      9620        78  POPC      H5X             4.2979779451      -13.2196424730      -10.4996667780  MEMB      72              0.0000000000
      9621        78  POPC      H5Y             5.7978733971      -14.1692702064      -10.7844068117  MEMB      72              0.0000000000
      9622        78  POPC      C36             4.6746439552      -14.7943089436       -9.0446876138  MEMB      72              0.0000000000
      9623        78  POPC      H6X             5.4495033272      -14.2487856855       -8.4572026452  MEMB      72              0.0000000000
      9624        78  POPC      H6Y             4.9469925903      -15.8730823516       -9.0407456409  MEMB      72              0.0000000000
      9625        78  POPC      C37             3.3201305944      -14.5834637824       -8.3493747097  MEMB      72              0.0000000000
      9626        78  POPC      H7X             2.5832597233      -15.3229331162       -8.7270776125  MEMB      72              0.0000000000
      9627        78  POPC      H7Y             2.9338515197      -13.5848565286       -8.6381621772  MEMB      72              0.0000000000
      9628        78  POPC      C38             3.3899957766      -14.6535374817       -6.8127598467  MEMB      72              0.0000000000
      9629        78  POPC      H8X             4.2133321753      -14.0033137824       -6.4428576667  MEMB      72              0.0000000000
      9630        78  POPC      H8Y             3.6224622572      -15.6995780508       -6.5124972508  MEMB      72              0.0000000000
      9631        78  POPC      C39             2.0768024346      -14.2055435609       -6.1530000503  MEMB      72              0.0000000000
      9632        78  POPC      H9X             1.2319140789      -14.7415416634       -6.6341184182  MEMB      72              0.0000000000
      9633        78  POPC      H9Y             1.9083143162      -13.1247107996       -6.3448125265  MEMB      72              0.0000000000
      9634        78  POPC      C310            2.0140767534      -14.4573796065       -4.6391771485  MEMB      72              0.0000000000
      9635        78  POPC      H10X            2.7917951296      -13.8609246361       -4.1205857181  MEMB      72              0.0000000000
      9636        78  POPC      H10Y            2.2342311190      -15.5325780877       -4.4455287319  MEMB      72              0.0000000000
      9637        78  POPC      C311            0.6171891153      -14.1431640850       -4.0779390700  MEMB      72              0.0000000000
      9638        78  POPC      H11X            0.1808746879      -15.0773767033       -3.6617832075  MEMB      72              0.0000000000
      9639        78  POPC      H11Y           -0.0288856845      -13.8415121395       -4.9346277240  MEMB      72              0.0000000000
      9640        78  POPC      C312            0.5391010219      -13.0147557576       -3.0338943077  MEMB      72              0.0000000000
      9641        78  POPC      H12X           -0.5387976111      -12.8130622448       -2.8352465879  MEMB      72              0.0000000000
      9642        78  POPC      H12Y            0.9648403292      -12.0811826612       -3.4599230893  MEMB      72              0.0000000000
      9643        78  POPC      C313            1.2025870006      -13.3125257860       -1.6774436338  MEMB      72              0.0000000000
      9644        78  POPC      H13X            0.9474483782      -12.4796242622       -0.9866364043  MEMB      72              0.0000000000
      9645        78  POPC      H13Y            2.3088899581      -13.3246332044       -1.7900068952  MEMB      72              0.0000000000
      9646        78  POPC      C314            0.7499842248      -14.6423785841       -1.0595304640  MEMB      72              0.0000000000
      9647        78  POPC      H14X            1.2696671692      -15.4544229485       -1.6172388715  MEMB      72              0.0000000000
      9648        78  POPC      H14Y           -0.3461866056      -14.7679312650       -1.2087932200  MEMB      72              0.0000000000
      9649        78  POPC      C315            1.0605446861      -14.7984998293        0.4377850806  MEMB      72              0.0000000000
      9650        78  POPC      H15X            2.1338385089      -14.5682448062        0.6106279418  MEMB      72              0.0000000000
      9651        78  POPC      H15Y            0.8931497189      -15.8644106363        0.7156609809  MEMB      72              0.0000000000
      9652        78  POPC      C316            0.2142859673      -13.9266538784        1.3678270789  MEMB      72              0.0000000000
      9653        78  POPC      H16X           -0.8639083447      -14.0099623987        1.1166192064  MEMB      72              0.0000000000
      9654        78  POPC      H16Y            0.5231085294      -12.8655102667        1.2810323642  MEMB      72              0.0000000000
      9655        78  POPC      H16Z            0.3549077943      -14.2368868145        2.4250666984  MEMB      72              0.0000000000
      9656        79  POPC      N              10.8883024510       -1.6278473166      -20.3805857102  MEMB      73              0.0000000000
      9657        79  POPC      C12            11.4006267458       -1.4429739609      -18.9568169144  MEMB      73              0.0000000000
      9658        79  POPC      H12A           11.2408183344       -2.3572105449      -18.3827187412  MEMB      73              0.0000000000
      9659        79  POPC      H12B           10.8487358881       -0.6484682842      -18.4748777278  MEMB      73              0.0000000000
      9660        79  POPC      C13            11.0872136003       -0.3524847588      -21.1371061930  MEMB      73              0.0000000000
      9661        79  POPC      H13A           12.1361860611       -0.0476554190      -21.0103898604  MEMB      73              0.0000000000
      9662        79  POPC      H13B           10.9061121260       -0.4655720066      -22.1982712567  MEMB      73              0.0000000000
      9663        79  POPC      H13C           10.4664154782        0.4653348657      -20.7895709530  MEMB      73              0.0000000000
      9664        79  POPC      C14            11.6964101650       -2.6881606322      -21.0662983666  MEMB      73              0.0000000000
      9665        79  POPC      H14A           12.7550466343       -2.4795589315      -20.8696267699  MEMB      73              0.0000000000
      9666        79  POPC      H14B           11.5301153105       -3.6646549958      -20.6447042675  MEMB      73              0.0000000000
      9667        79  POPC      H14C           11.5833882431       -2.7049550402      -22.1387162038  MEMB      73              0.0000000000
      9668        79  POPC      C15             9.4579944549       -2.0444853987      -20.3670909723  MEMB      73              0.0000000000
      9669        79  POPC      H15A            8.8208654984       -1.2199488644      -20.0769134542  MEMB      73              0.0000000000
      9670        79  POPC      H15B            9.2810177908       -2.8614189155      -19.6695647615  MEMB      73              0.0000000000
      9671        79  POPC      H15C            9.1734866782       -2.3749231064      -21.3572044381  MEMB      73              0.0000000000
      9672        79  POPC      C11            12.8957045035       -1.1017461966      -18.8056838267  MEMB      73              0.0000000000
      9673        79  POPC      H11A           13.0919593615       -0.8171745392      -17.7413275980  MEMB      73              0.0000000000
      9674        79  POPC      H11B           13.1600537628       -0.2049781285      -19.3987673775  MEMB      73              0.0000000000
      9675        79  POPC      P              14.4236415598       -3.0800938978      -18.1886708021  MEMB      73              0.0000000000
      9676        79  POPC      O13            15.2335592950       -2.1830100248      -17.3364341698  MEMB      73              0.0000000000
      9677        79  POPC      O14            15.1374111002       -4.1387575847      -18.9451713947  MEMB      73              0.0000000000
      9678        79  POPC      O12            13.6959423176       -2.1902091279      -19.2547400143  MEMB      73              0.0000000000
      9679        79  POPC      O11            13.1888633549       -3.7143684416      -17.3903855910  MEMB      73              0.0000000000
      9680        79  POPC      C1             12.6108391681       -4.9544153924      -17.8480137476  MEMB      73              0.0000000000
      9681        79  POPC      HA             13.4046443923       -5.7138916131      -18.0290085918  MEMB      73              0.0000000000
      9682        79  POPC      HB             12.0907519631       -4.7871269852      -18.8159794811  MEMB      73              0.0000000000
      9683        79  POPC      C2             11.5590168196       -5.6462799589      -16.8850559931  MEMB      73              0.0000000000
      9684        79  POPC      HS             10.6063434642       -5.7664452772      -17.4573853867  MEMB      73              0.0000000000
      9685        79  POPC      O21            11.2959903215       -4.9210203437      -15.6790375073  MEMB      73              0.0000000000
      9686        79  POPC      C21            10.8048317306       -3.7144245721      -15.8871218122  MEMB      73              0.0000000000
      9687        79  POPC      O22            10.1851421259       -3.3701021962      -16.8872705121  MEMB      73              0.0000000000
      9688        79  POPC      C22            11.0159360808       -2.8834656400      -14.6228274452  MEMB      73              0.0000000000
      9689        79  POPC      H2R            11.5770020996       -3.4982908604      -13.8880321974  MEMB      73              0.0000000000
      9690        79  POPC      H2S            10.0155344143       -2.6732689720      -14.1973248395  MEMB      73              0.0000000000
      9691        79  POPC      C3             11.9921003970       -7.0908164987      -16.4793958997  MEMB      73              0.0000000000
      9692        79  POPC      HX             12.3524841721       -7.5702714864      -17.3990805329  MEMB      73              0.0000000000
      9693        79  POPC      HY             11.0927810723       -7.6619917157      -16.1415167914  MEMB      73              0.0000000000
      9694        79  POPC      O31            13.0981286377       -7.1393229376      -15.5577293711  MEMB      73              0.0000000000
      9695        79  POPC      C31            12.7707055733       -7.3658114380      -14.2798775847  MEMB      73              0.0000000000
      9696        79  POPC      O32            11.6527424105       -7.6780875074      -13.9198044664  MEMB      73              0.0000000000
      9697        79  POPC      C32            14.0109521078       -7.3690926423      -13.3629570278  MEMB      73              0.0000000000
      9698        79  POPC      H2X            14.8543998897       -6.8795326914      -13.8722089355  MEMB      73              0.0000000000
      9699        79  POPC      H2Y            14.2773203064       -8.4323503263      -13.2170995983  MEMB      73              0.0000000000
      9700        79  POPC      C23            11.7861796517       -1.5714310077      -14.8994821222  MEMB      73              0.0000000000
      9701        79  POPC      H3R            11.1431843787       -0.9056469506      -15.5207626446  MEMB      73              0.0000000000
      9702        79  POPC      H3S            12.7132051438       -1.7914447264      -15.4818531664  MEMB      73              0.0000000000
      9703        79  POPC      C24            12.1842271155       -0.8269565585      -13.6145737962  MEMB      73              0.0000000000
      9704        79  POPC      H4R            11.2805236687       -0.7108650809      -12.9805171697  MEMB      73              0.0000000000
      9705        79  POPC      H4S            12.5297802614        0.1991087944      -13.8758841014  MEMB      73              0.0000000000
      9706        79  POPC      C25            13.2934100019       -1.5255325792      -12.8060265077  MEMB      73              0.0000000000
      9707        79  POPC      H5R            14.2525023665       -0.9889896674      -12.9859531990  MEMB      73              0.0000000000
      9708        79  POPC      H5S            13.4232945819       -2.5679698400      -13.1725617086  MEMB      73              0.0000000000
      9709        79  POPC      C26            13.0168936469       -1.5883472983      -11.2972205441  MEMB      73              0.0000000000
      9710        79  POPC      H6R            12.6812838802       -0.5838114636      -10.9578410234  MEMB      73              0.0000000000
      9711        79  POPC      H6S            13.9568560681       -1.8339720187      -10.7537935819  MEMB      73              0.0000000000
      9712        79  POPC      C27            11.9612138700       -2.6476068180      -10.9407682368  MEMB      73              0.0000000000
      9713        79  POPC      H7R            12.3822637462       -3.6604073454      -11.1365433352  MEMB      73              0.0000000000
      9714        79  POPC      H7S            11.1086291307       -2.5229592017      -11.6410228626  MEMB      73              0.0000000000
      9715        79  POPC      C28            11.4839155452       -2.5665073702       -9.4701997615  MEMB      73              0.0000000000
      9716        79  POPC      H8R            11.9258880919       -1.6520817688       -9.0159099325  MEMB      73              0.0000000000
      9717        79  POPC      H8S            11.9155511089       -3.4369122784       -8.9340905377  MEMB      73              0.0000000000
      9718        79  POPC      C29             9.9852313314       -2.5790728426       -9.2876587789  MEMB      73              0.0000000000
      9719        79  POPC      H91             9.4042970022       -3.0138489094      -10.1172008218  MEMB      73              0.0000000000
      9720        79  POPC      C210            9.3151531360       -2.0781020373       -8.2394018866  MEMB      73              0.0000000000
      9721        79  POPC      H101            8.2157743127       -2.1501602409       -8.2325943578  MEMB      73              0.0000000000
      9722        79  POPC      C211            9.9135605377       -1.4078418228       -7.0282790106  MEMB      73              0.0000000000
      9723        79  POPC      H11R            9.7361138639       -0.3162467741       -7.0907313461  MEMB      73              0.0000000000
      9724        79  POPC      H11S           11.0141262078       -1.5520735478       -6.9560979334  MEMB      73              0.0000000000
      9725        79  POPC      C212            9.2466586980       -1.9503320059       -5.7528767958  MEMB      73              0.0000000000
      9726        79  POPC      H12R            8.1414154413       -1.8273068517       -5.8439226950  MEMB      73              0.0000000000
      9727        79  POPC      H12S            9.5445065218       -1.3970120343       -4.8425516876  MEMB      73              0.0000000000
      9728        79  POPC      C213            9.5786227277       -3.4182407613       -5.4996140296  MEMB      73              0.0000000000
      9729        79  POPC      H13R            9.4316043559       -3.9743283104       -6.4470342656  MEMB      73              0.0000000000
      9730        79  POPC      H13S            8.8477347017       -3.8030636344       -4.7655254863  MEMB      73              0.0000000000
      9731        79  POPC      C214           10.9877076869       -3.7040427243       -4.9546294927  MEMB      73              0.0000000000
      9732        79  POPC      H14R           11.0136762867       -3.4959049671       -3.8644387913  MEMB      73              0.0000000000
      9733        79  POPC      H14S           11.7276698699       -3.0304730912       -5.4346381206  MEMB      73              0.0000000000
      9734        79  POPC      C215           11.3535819805       -5.1668786886       -5.2440449290  MEMB      73              0.0000000000
      9735        79  POPC      H15R           11.6970161884       -5.2139509990       -6.2981898072  MEMB      73              0.0000000000
      9736        79  POPC      H15S           10.4360901273       -5.7856997380       -5.1540664867  MEMB      73              0.0000000000
      9737        79  POPC      C216           12.4042164125       -5.8177311441       -4.3408321262  MEMB      73              0.0000000000
      9738        79  POPC      H16R           13.2816249200       -5.1516711806       -4.2559855490  MEMB      73              0.0000000000
      9739        79  POPC      H16S           12.7656423898       -6.7519586312       -4.8269593369  MEMB      73              0.0000000000
      9740        79  POPC      C217           11.8452500004       -6.2233890073       -2.9717245676  MEMB      73              0.0000000000
      9741        79  POPC      H17R           10.9665752389       -6.8910523959       -3.1282415882  MEMB      73              0.0000000000
      9742        79  POPC      H17S           11.4794011228       -5.3209777974       -2.4344595935  MEMB      73              0.0000000000
      9743        79  POPC      C218           12.8700782477       -6.9530047427       -2.1080841171  MEMB      73              0.0000000000
      9744        79  POPC      H18R           13.7989353356       -6.3483528314       -2.0341993141  MEMB      73              0.0000000000
      9745        79  POPC      H18S           13.1324208887       -7.9324652984       -2.5639730876  MEMB      73              0.0000000000
      9746        79  POPC      H18T           12.4757463691       -7.1299068768       -1.0846989934  MEMB      73              0.0000000000
      9747        79  POPC      C33            13.8576480811       -6.7000754243      -11.9687013188  MEMB      73              0.0000000000
      9748        79  POPC      H3X            12.9306487044       -7.0624172469      -11.4783522906  MEMB      73              0.0000000000
      9749        79  POPC      H3Y            13.7834964234       -5.5985360110      -12.0941228936  MEMB      73              0.0000000000
      9750        79  POPC      C34            15.0351195900       -7.0584097319      -11.0422521425  MEMB      73              0.0000000000
      9751        79  POPC      H4X            15.9917041564       -6.8713123938      -11.5772949821  MEMB      73              0.0000000000
      9752        79  POPC      H4Y            14.9710028202       -8.1552460700      -10.8498340866  MEMB      73              0.0000000000
      9753        79  POPC      C35            15.0742281257       -6.3409581879       -9.6738464934  MEMB      73              0.0000000000
      9754        79  POPC      H5X            15.8364999975       -6.8644912621       -9.0512042628  MEMB      73              0.0000000000
      9755        79  POPC      H5Y            14.1017917138       -6.4505325328       -9.1508833039  MEMB      73              0.0000000000
      9756        79  POPC      C36            15.4766342759       -4.8542951251       -9.7326577129  MEMB      73              0.0000000000
      9757        79  POPC      H6X            14.5904241242       -4.2234597793       -9.9496130555  MEMB      73              0.0000000000
      9758        79  POPC      H6Y            16.1849094582       -4.7398371772      -10.5793707121  MEMB      73              0.0000000000
      9759        79  POPC      C37            16.2393348461       -4.3310712082       -8.4933040929  MEMB      73              0.0000000000
      9760        79  POPC      H7X            16.6169188231       -3.3087934096       -8.7152307293  MEMB      73              0.0000000000
      9761        79  POPC      H7Y            17.1323012179       -4.9817281361       -8.3429353293  MEMB      73              0.0000000000
      9762        79  POPC      C38            15.4369668733       -4.2975844377       -7.1811847057  MEMB      73              0.0000000000
      9763        79  POPC      H8X            16.1208601136       -4.1508086679       -6.3156872903  MEMB      73              0.0000000000
      9764        79  POPC      H8Y            14.9486873642       -5.2913736589       -7.0638263971  MEMB      73              0.0000000000
      9765        79  POPC      C39            14.3237444361       -3.2418156616       -7.1286507455  MEMB      73              0.0000000000
      9766        79  POPC      H9X            13.6121826032       -3.5339975835       -6.3260549789  MEMB      73              0.0000000000
      9767        79  POPC      H9Y            13.7767089141       -3.2786637186       -8.0923129516  MEMB      73              0.0000000000
      9768        79  POPC      C310           14.7516519468       -1.7864257233       -6.8674893571  MEMB      73              0.0000000000
      9769        79  POPC      H10X           13.8314899919       -1.1638695116       -6.9777064688  MEMB      73              0.0000000000
      9770        79  POPC      H10Y           15.4659069402       -1.4429495776       -7.6451539698  MEMB      73              0.0000000000
      9771        79  POPC      C311           15.3180075011       -1.5058724263       -5.4623793622  MEMB      73              0.0000000000
      9772        79  POPC      H11X           16.4162032098       -1.6823714432       -5.4728275498  MEMB      73              0.0000000000
      9773        79  POPC      H11Y           14.8708086950       -2.2128330163       -4.7313306493  MEMB      73              0.0000000000
      9774        79  POPC      C312           15.0174997688       -0.0636392081       -5.0056268945  MEMB      73              0.0000000000
      9775        79  POPC      H12X           13.9409253366        0.0336842626       -4.7527698912  MEMB      73              0.0000000000
      9776        79  POPC      H12Y           15.2027807953        0.6022174477       -5.8779183100  MEMB      73              0.0000000000
      9777        79  POPC      C313           15.8978449700        0.4612089104       -3.8540764258  MEMB      73              0.0000000000
      9778        79  POPC      H13X           15.9165848412        1.5724991006       -3.9032996788  MEMB      73              0.0000000000
      9779        79  POPC      H13Y           16.9391067604        0.1032736653       -4.0123464988  MEMB      73              0.0000000000
      9780        79  POPC      C314           15.4316235343        0.0927749762       -2.4377660957  MEMB      73              0.0000000000
      9781        79  POPC      H14X           16.2485248401        0.3261569047       -1.7164707404  MEMB      73              0.0000000000
      9782        79  POPC      H14Y           15.2686348050       -0.9953525124       -2.4027537879  MEMB      73              0.0000000000
      9783        79  POPC      C315           14.1663706568        0.8415921940       -1.9961097145  MEMB      73              0.0000000000
      9784        79  POPC      H15X           13.3787065147        0.7267787120       -2.7732880434  MEMB      73              0.0000000000
      9785        79  POPC      H15Y           14.4229986281        1.9238203514       -1.9377788775  MEMB      73              0.0000000000
      9786        79  POPC      C316           13.5911932734        0.3975041289       -0.6473539276  MEMB      73              0.0000000000
      9787        79  POPC      H16X           13.2367665545       -0.6521916353       -0.6989172077  MEMB      73              0.0000000000
      9788        79  POPC      H16Y           12.7231556407        1.0343711652       -0.3720027383  MEMB      73              0.0000000000
      9789        79  POPC      H16Z           14.3555238898        0.4795253215        0.1547125208  MEMB      73              0.0000000000
      9790        80  POPC      N              -5.9085093610       11.0669185198      -17.6855411505  MEMB      74              0.0000000000
      9791        80  POPC      C12            -5.1020070317       11.8616004586      -18.6990526319  MEMB      74              0.0000000000
      9792        80  POPC      H12A           -4.1589263231       11.3422056873      -18.8720663966  MEMB      74              0.0000000000
      9793        80  POPC      H12B           -4.8304876775       12.7965661893      -18.2284434686  MEMB      74              0.0000000000
      9794        80  POPC      C13            -6.8022785478       11.9865011518      -16.9171911016  MEMB      74              0.0000000000
      9795        80  POPC      H13A           -6.2499768005       12.7251690755      -16.3578266967  MEMB      74              0.0000000000
      9796        80  POPC      H13B           -7.4225201154       12.5370461082      -17.6210968937  MEMB      74              0.0000000000
      9797        80  POPC      H13C           -7.4515589841       11.4421847920      -16.2456984101  MEMB      74              0.0000000000
      9798        80  POPC      C14            -6.7768791809       10.0886280067      -18.4205597134  MEMB      74              0.0000000000
      9799        80  POPC      H14A           -7.3677459549       10.6574828653      -19.1439152291  MEMB      74              0.0000000000
      9800        80  POPC      H14B           -6.1954028253        9.4014759362      -19.0111893360  MEMB      74              0.0000000000
      9801        80  POPC      H14C           -7.4551736394        9.5754934054      -17.7540855205  MEMB      74              0.0000000000
      9802        80  POPC      C15            -4.9973772406       10.3389012453      -16.7760143198  MEMB      74              0.0000000000
      9803        80  POPC      H15A           -4.5600132399        9.4617843189      -17.2457508894  MEMB      74              0.0000000000
      9804        80  POPC      H15B           -5.4671683155       10.0224966396      -15.8515885191  MEMB      74              0.0000000000
      9805        80  POPC      H15C           -4.1179765643       10.9366383309      -16.5158074817  MEMB      74              0.0000000000
      9806        80  POPC      C11            -5.7607139456       12.1554606496      -20.0821139705  MEMB      74              0.0000000000
      9807        80  POPC      H11A           -5.5666832646       11.2914288881      -20.7567463064  MEMB      74              0.0000000000
      9808        80  POPC      H11B           -5.2268565671       13.0325434458      -20.5284676290  MEMB      74              0.0000000000
      9809        80  POPC      P              -7.9330847805       13.2786825740      -21.0424188319  MEMB      74              0.0000000000
      9810        80  POPC      O13            -9.1770229780       12.6075561048      -21.5137505475  MEMB      74              0.0000000000
      9811        80  POPC      O14            -7.0057482631       13.8024852993      -22.0646495957  MEMB      74              0.0000000000
      9812        80  POPC      O12            -7.1761580282       12.3566138535      -19.9944745890  MEMB      74              0.0000000000
      9813        80  POPC      O11            -8.3539453515       14.4850494625      -20.1422836298  MEMB      74              0.0000000000
      9814        80  POPC      C1             -9.0995958228       14.2556956881      -18.9545096499  MEMB      74              0.0000000000
      9815        80  POPC      HA             -8.9735210029       13.2288285299      -18.5416801872  MEMB      74              0.0000000000
      9816        80  POPC      HB            -10.1802746494       14.4078015475      -19.1828267821  MEMB      74              0.0000000000
      9817        80  POPC      C2             -8.6966775997       15.2816525974      -17.8723347916  MEMB      74              0.0000000000
      9818        80  POPC      HS             -8.7596361131       16.2632595350      -18.4027298695  MEMB      74              0.0000000000
      9819        80  POPC      O21            -7.3748814311       14.9873134651      -17.3519910000  MEMB      74              0.0000000000
      9820        80  POPC      C21            -6.6956180038       16.0973266639      -17.0512236979  MEMB      74              0.0000000000
      9821        80  POPC      O22            -6.9865363617       17.2187892007      -17.4177694308  MEMB      74              0.0000000000
      9822        80  POPC      C22            -5.5114777868       15.7757957490      -16.1446983251  MEMB      74              0.0000000000
      9823        80  POPC      H2R            -5.0644874084       16.7467956228      -15.8445361332  MEMB      74              0.0000000000
      9824        80  POPC      H2S            -4.7832720502       15.2232519919      -16.7722545743  MEMB      74              0.0000000000
      9825        80  POPC      C3             -9.7166902323       15.3332633679      -16.6950417689  MEMB      74              0.0000000000
      9826        80  POPC      HX            -10.7085478553       15.5461163683      -17.1485489105  MEMB      74              0.0000000000
      9827        80  POPC      HY             -9.4728990354       16.2087172033      -16.0558722513  MEMB      74              0.0000000000
      9828        80  POPC      O31            -9.7071534558       14.1426537309      -15.8679645939  MEMB      74              0.0000000000
      9829        80  POPC      C31           -10.4948248137       13.1611398266      -16.2823250916  MEMB      74              0.0000000000
      9830        80  POPC      O32           -11.1753419824       13.1646261297      -17.2882651603  MEMB      74              0.0000000000
      9831        80  POPC      C32           -10.2804855900       11.9692777026      -15.3602077590  MEMB      74              0.0000000000
      9832        80  POPC      H2X            -9.2627862509       11.5797480159      -15.5527060228  MEMB      74              0.0000000000
      9833        80  POPC      H2Y           -10.9959063464       11.1889850113      -15.6610095234  MEMB      74              0.0000000000
      9834        80  POPC      C23            -5.8776932612       14.9433000520      -14.8925228317  MEMB      74              0.0000000000
      9835        80  POPC      H3R            -4.9290991238       14.5894243003      -14.4221676220  MEMB      74              0.0000000000
      9836        80  POPC      H3S            -6.4587796646       14.0392367133      -15.1706306820  MEMB      74              0.0000000000
      9837        80  POPC      C24            -6.6692907357       15.7224645944      -13.8327736048  MEMB      74              0.0000000000
      9838        80  POPC      H4R            -7.6044130996       16.1394007355      -14.2707395395  MEMB      74              0.0000000000
      9839        80  POPC      H4S            -6.0586034666       16.5820394869      -13.4748968185  MEMB      74              0.0000000000
      9840        80  POPC      C25            -7.0271840309       14.8236379333      -12.6377506794  MEMB      74              0.0000000000
      9841        80  POPC      H5R            -6.1158436013       14.2721627398      -12.3116464088  MEMB      74              0.0000000000
      9842        80  POPC      H5S            -7.7739029008       14.0663231062      -12.9603428359  MEMB      74              0.0000000000
      9843        80  POPC      C26            -7.5716730920       15.5880709323      -11.4194142246  MEMB      74              0.0000000000
      9844        80  POPC      H6R            -8.4179138680       16.2381310734      -11.7318791607  MEMB      74              0.0000000000
      9845        80  POPC      H6S            -6.7618331606       16.2429744415      -11.0304996487  MEMB      74              0.0000000000
      9846        80  POPC      C27            -8.0598746215       14.6194767411      -10.3254318720  MEMB      74              0.0000000000
      9847        80  POPC      H7R            -7.2659982251       13.8663034322      -10.1184675554  MEMB      74              0.0000000000
      9848        80  POPC      H7S            -8.9284419320       14.0689788073      -10.7452508893  MEMB      74              0.0000000000
      9849        80  POPC      C28            -8.5113884236       15.2730478182       -9.0061592981  MEMB      74              0.0000000000
      9850        80  POPC      H8R            -9.0453724082       14.5057043866       -8.4002358356  MEMB      74              0.0000000000
      9851        80  POPC      H8S            -9.2515011301       16.0720482261       -9.2334883824  MEMB      74              0.0000000000
      9852        80  POPC      C29            -7.3315270940       15.8443333212       -8.2639688278  MEMB      74              0.0000000000
      9853        80  POPC      H91            -6.7029071983       16.5032580605       -8.8755842954  MEMB      74              0.0000000000
      9854        80  POPC      C210           -6.9630042372       15.6019594044       -6.9930427113  MEMB      74              0.0000000000
      9855        80  POPC      H101           -6.0780998254       16.1155090211       -6.5847801724  MEMB      74              0.0000000000
      9856        80  POPC      C211           -7.6695841781       14.6908703205       -6.0286077234  MEMB      74              0.0000000000
      9857        80  POPC      H11R           -6.9774357409       14.3699998190       -5.2176831697  MEMB      74              0.0000000000
      9858        80  POPC      H11S           -8.0109266296       13.7695685276       -6.5466869855  MEMB      74              0.0000000000
      9859        80  POPC      C212           -8.8996767287       15.3631269468       -5.4085593930  MEMB      74              0.0000000000
      9860        80  POPC      H12R           -9.5884452948       15.6961575491       -6.2201341997  MEMB      74              0.0000000000
      9861        80  POPC      H12S           -8.6026216139       16.2674047985       -4.8326639788  MEMB      74              0.0000000000
      9862        80  POPC      C213           -9.6628865589       14.4082345362       -4.4884287502  MEMB      74              0.0000000000
      9863        80  POPC      H13R           -9.0217702585       14.1276492945       -3.6243662652  MEMB      74              0.0000000000
      9864        80  POPC      H13S           -9.9037443276       13.4803285863       -5.0561972589  MEMB      74              0.0000000000
      9865        80  POPC      C214          -10.9655631006       15.0358100298       -3.9973440211  MEMB      74              0.0000000000
      9866        80  POPC      H14R          -11.5085170938       15.4346154625       -4.8858510891  MEMB      74              0.0000000000
      9867        80  POPC      H14S          -10.7383450484       15.8929347648       -3.3274130116  MEMB      74              0.0000000000
      9868        80  POPC      C215          -11.8971655880       14.0419360668       -3.2969190586  MEMB      74              0.0000000000
      9869        80  POPC      H15R          -12.0950637469       13.1947636903       -3.9887954495  MEMB      74              0.0000000000
      9870        80  POPC      H15S          -12.8617829175       14.5631041292       -3.1267392101  MEMB      74              0.0000000000
      9871        80  POPC      C216          -11.3806811580       13.5260608541       -1.9461831711  MEMB      74              0.0000000000
      9872        80  POPC      H16R          -11.2604251865       14.3886045731       -1.2582395570  MEMB      74              0.0000000000
      9873        80  POPC      H16S          -10.3799777512       13.0581528799       -2.0727197246  MEMB      74              0.0000000000
      9874        80  POPC      C217          -12.3200790603       12.5104136488       -1.2822409134  MEMB      74              0.0000000000
      9875        80  POPC      H17R          -13.3032367347       12.9903216479       -1.0848112490  MEMB      74              0.0000000000
      9876        80  POPC      H17S          -11.8953780709       12.2305789555       -0.2929812725  MEMB      74              0.0000000000
      9877        80  POPC      C218          -12.5346931466       11.2417336879       -2.1072646847  MEMB      74              0.0000000000
      9878        80  POPC      H18R          -13.0496788181       10.4685043737       -1.5010506015  MEMB      74              0.0000000000
      9879        80  POPC      H18S          -11.5590877879       10.8287381249       -2.4391676063  MEMB      74              0.0000000000
      9880        80  POPC      H18T          -13.1516488757       11.4542769683       -3.0062960525  MEMB      74              0.0000000000
      9881        80  POPC      C33           -10.3967797779       12.3094842297      -13.8602967962  MEMB      74              0.0000000000
      9882        80  POPC      H3X           -11.4111144158       12.6980985231      -13.6160501144  MEMB      74              0.0000000000
      9883        80  POPC      H3Y            -9.6687571803       13.1084504984      -13.5928681628  MEMB      74              0.0000000000
      9884        80  POPC      C34           -10.1111972719       11.0773244766      -13.0002872978  MEMB      74              0.0000000000
      9885        80  POPC      H4X            -9.1428369685       10.6239863757      -13.3130420685  MEMB      74              0.0000000000
      9886        80  POPC      H4Y           -10.9078822275       10.3237097409      -13.1839124383  MEMB      74              0.0000000000
      9887        80  POPC      C35           -10.0777101385       11.3879639651      -11.5007483496  MEMB      74              0.0000000000
      9888        80  POPC      H5X           -10.9943171743       10.9704805032      -11.0239921810  MEMB      74              0.0000000000
      9889        80  POPC      H5Y           -10.1079222490       12.4860924683      -11.3504007759  MEMB      74              0.0000000000
      9890        80  POPC      C36            -8.8296384873       10.8374417515      -10.8014858569  MEMB      74              0.0000000000
      9891        80  POPC      H6X            -7.9144147396       11.2728555206      -11.2615256922  MEMB      74              0.0000000000
      9892        80  POPC      H6Y            -8.7984249106        9.7357131527      -10.9591988958  MEMB      74              0.0000000000
      9893        80  POPC      C37            -8.8274969117       11.1365226984       -9.3005501082  MEMB      74              0.0000000000
      9894        80  POPC      H7X            -9.8052879549       10.8221786416       -8.8749971330  MEMB      74              0.0000000000
      9895        80  POPC      H7Y            -8.7469476464       12.2322370345       -9.1359089397  MEMB      74              0.0000000000
      9896        80  POPC      C38            -7.6873558589       10.4274813411       -8.5617059490  MEMB      74              0.0000000000
      9897        80  POPC      H8X            -6.7166863336       10.8275660137       -8.9333768678  MEMB      74              0.0000000000
      9898        80  POPC      H8Y            -7.7094711491        9.3380940020       -8.7853297055  MEMB      74              0.0000000000
      9899        80  POPC      C39            -7.7750828782       10.6356123041       -7.0456339750  MEMB      74              0.0000000000
      9900        80  POPC      H9X            -8.7110123526       10.1819527506       -6.6533548759  MEMB      74              0.0000000000
      9901        80  POPC      H9Y            -7.8256833635       11.7283727374       -6.8523233364  MEMB      74              0.0000000000
      9902        80  POPC      C310           -6.5670099328       10.0695173059       -6.2929448022  MEMB      74              0.0000000000
      9903        80  POPC      H10X           -5.6459044480       10.4391545758       -6.7976785080  MEMB      74              0.0000000000
      9904        80  POPC      H10Y           -6.5719219399        8.9595373202       -6.3592519565  MEMB      74              0.0000000000
      9905        80  POPC      C311           -6.5372461737       10.5078989321       -4.8198464899  MEMB      74              0.0000000000
      9906        80  POPC      H11X           -7.4946408999       10.2114697279       -4.3348707734  MEMB      74              0.0000000000
      9907        80  POPC      H11Y           -6.4786308364       11.6191416149       -4.7757939450  MEMB      74              0.0000000000
      9908        80  POPC      C312           -5.3638795293        9.9045344510       -4.0289479739  MEMB      74              0.0000000000
      9909        80  POPC      H12X           -5.4911398638        8.7980952294       -4.0127994481  MEMB      74              0.0000000000
      9910        80  POPC      H12Y           -5.4135510707       10.2543195934       -2.9743841014  MEMB      74              0.0000000000
      9911        80  POPC      C313           -3.9696526453       10.2201177544       -4.6055794734  MEMB      74              0.0000000000
      9912        80  POPC      H13X           -3.9058568803        9.8271805700       -5.6441577594  MEMB      74              0.0000000000
      9913        80  POPC      H13Y           -3.2068169973        9.6672062876       -4.0155047730  MEMB      74              0.0000000000
      9914        80  POPC      C314           -3.5869814789       11.7100966507       -4.6040405097  MEMB      74              0.0000000000
      9915        80  POPC      H14X           -4.3503685479       12.3033744380       -5.1539050145  MEMB      74              0.0000000000
      9916        80  POPC      H14Y           -2.6227415183       11.8232480658       -5.1524499008  MEMB      74              0.0000000000
      9917        80  POPC      C315           -3.3991119944       12.2852609551       -3.1930249429  MEMB      74              0.0000000000
      9918        80  POPC      H15X           -2.6860864944       11.6355602557       -2.6349058145  MEMB      74              0.0000000000
      9919        80  POPC      H15Y           -4.3703208704       12.2529495927       -2.6501601159  MEMB      74              0.0000000000
      9920        80  POPC      C316           -2.8648776108       13.7198539492       -3.1935341595  MEMB      74              0.0000000000
      9921        80  POPC      H16X           -2.7288951010       14.0887370681       -2.1545370110  MEMB      74              0.0000000000
      9922        80  POPC      H16Y           -3.5689793410       14.3990289499       -3.7194150573  MEMB      74              0.0000000000
      9923        80  POPC      H16Z           -1.8813322639       13.7657838217       -3.7072427367  MEMB      74              0.0000000000
      9924        81  POPC      N             -15.0889065247       -1.9156176835      -21.2109919869  MEMB      75              0.0000000000
      9925        81  POPC      C12           -15.6271267819       -1.1646721283      -20.0000620124  MEMB      75              0.0000000000
      9926        81  POPC      H12A          -16.4033417877       -1.7619176973      -19.5373195211  MEMB      75              0.0000000000
      9927        81  POPC      H12B          -16.0927211842       -0.2487141345      -20.3246460599  MEMB      75              0.0000000000
      9928        81  POPC      C13           -13.8345256570       -1.2514938776      -21.7214486328  MEMB      75              0.0000000000
      9929        81  POPC      H13A          -13.0373518509       -1.3974479605      -20.9967051454  MEMB      75              0.0000000000
      9930        81  POPC      H13B          -13.5127168357       -1.6843444104      -22.6705573307  MEMB      75              0.0000000000
      9931        81  POPC      H13C          -13.9848795409       -0.1871006518      -21.8681554783  MEMB      75              0.0000000000
      9932        81  POPC      C14           -14.7221475239       -3.2970580082      -20.7846949886  MEMB      75              0.0000000000
      9933        81  POPC      H14A          -15.5841626408       -3.8637194420      -20.4570679252  MEMB      75              0.0000000000
      9934        81  POPC      H14B          -14.2301357391       -3.8401734977      -21.5792434201  MEMB      75              0.0000000000
      9935        81  POPC      H14C          -14.0632281151       -3.2198161919      -19.9163439352  MEMB      75              0.0000000000
      9936        81  POPC      C15           -16.0562854125       -1.9745365957      -22.3573577326  MEMB      75              0.0000000000
      9937        81  POPC      H15A          -16.2683687969       -0.9803968469      -22.7438841949  MEMB      75              0.0000000000
      9938        81  POPC      H15B          -16.9794649003       -2.4899151982      -22.1280162825  MEMB      75              0.0000000000
      9939        81  POPC      H15C          -15.5780508791       -2.5469600603      -23.1516428156  MEMB      75              0.0000000000
      9940        81  POPC      C11           -14.6340226187       -0.7961817433      -18.8600973516  MEMB      75              0.0000000000
      9941        81  POPC      H11A          -15.2265860381       -0.2393537236      -18.0902370471  MEMB      75              0.0000000000
      9942        81  POPC      H11B          -13.8469364801       -0.1044112582      -19.2342013331  MEMB      75              0.0000000000
      9943        81  POPC      P             -13.5096871236       -1.9931938693      -16.8101831890  MEMB      75              0.0000000000
      9944        81  POPC      O13           -13.5468894461       -0.6237594918      -16.2453731126  MEMB      75              0.0000000000
      9945        81  POPC      O14           -12.2062650508       -2.6917450999      -16.8301124625  MEMB      75              0.0000000000
      9946        81  POPC      O12           -14.0263071983       -1.9617415146      -18.3120558311  MEMB      75              0.0000000000
      9947        81  POPC      O11           -14.6059579611       -2.9454889987      -16.1658006316  MEMB      75              0.0000000000
      9948        81  POPC      C1            -14.6379419095       -4.3094069409      -16.6297532340  MEMB      75              0.0000000000
      9949        81  POPC      HA            -13.6560651715       -4.8004263096      -16.4312470842  MEMB      75              0.0000000000
      9950        81  POPC      HB            -14.8127129902       -4.3585195484      -17.7286972084  MEMB      75              0.0000000000
      9951        81  POPC      C2            -15.7386897506       -5.1873163226      -15.9423479816  MEMB      75              0.0000000000
      9952        81  POPC      HS            -16.5009168846       -5.4319358966      -16.7179179799  MEMB      75              0.0000000000
      9953        81  POPC      O21           -16.3376543328       -4.5003749855      -14.8231349135  MEMB      75              0.0000000000
      9954        81  POPC      C21           -17.3812995321       -3.7413161142      -15.1074842991  MEMB      75              0.0000000000
      9955        81  POPC      O22           -17.9370185356       -3.6504037152      -16.1891686964  MEMB      75              0.0000000000
      9956        81  POPC      C22           -17.9249577810       -3.1524813656      -13.8100809913  MEMB      75              0.0000000000
      9957        81  POPC      H2R           -18.0006438083       -3.9812086737      -13.0747405312  MEMB      75              0.0000000000
      9958        81  POPC      H2S           -18.9437983399       -2.7707345274      -14.0181053011  MEMB      75              0.0000000000
      9959        81  POPC      C3            -15.1728145895       -6.5625369825      -15.4583160791  MEMB      75              0.0000000000
      9960        81  POPC      HX            -14.8646757463       -7.1452275305      -16.3564863481  MEMB      75              0.0000000000
      9961        81  POPC      HY            -15.9841454028       -7.1371727851      -14.9571900380  MEMB      75              0.0000000000
      9962        81  POPC      O31           -14.0176496416       -6.3847997155      -14.6200659430  MEMB      75              0.0000000000
      9963        81  POPC      C31           -14.2229866230       -6.2629548524      -13.3306545559  MEMB      75              0.0000000000
      9964        81  POPC      O32           -15.2146010468       -6.5941734418      -12.7043224054  MEMB      75              0.0000000000
      9965        81  POPC      C32           -13.0434037275       -5.5041342135      -12.7289067897  MEMB      75              0.0000000000
      9966        81  POPC      H2X           -12.1210140669       -6.0804553099      -12.9479956621  MEMB      75              0.0000000000
      9967        81  POPC      H2Y           -13.1992439065       -5.4665194073      -11.6343104262  MEMB      75              0.0000000000
      9968        81  POPC      C23           -17.0328106015       -2.0326192827      -13.2422424242  MEMB      75              0.0000000000
      9969        81  POPC      H3R           -17.0068391352       -1.1724460693      -13.9501622728  MEMB      75              0.0000000000
      9970        81  POPC      H3S           -15.9860769420       -2.4018319716      -13.1354127808  MEMB      75              0.0000000000
      9971        81  POPC      C24           -17.5333787800       -1.5625507727      -11.8717274898  MEMB      75              0.0000000000
      9972        81  POPC      H4R           -17.5833027908       -2.4354601146      -11.1810739796  MEMB      75              0.0000000000
      9973        81  POPC      H4S           -18.5651149862       -1.1591857338      -11.9808588204  MEMB      75              0.0000000000
      9974        81  POPC      C25           -16.6209157548       -0.4892938746      -11.2621975718  MEMB      75              0.0000000000
      9975        81  POPC      H5R           -16.4021825518        0.2699256702      -12.0497315273  MEMB      75              0.0000000000
      9976        81  POPC      H5S           -15.6491755615       -0.9502588611      -10.9767671648  MEMB      75              0.0000000000
      9977        81  POPC      C26           -17.2494101420        0.2242965354      -10.0577620032  MEMB      75              0.0000000000
      9978        81  POPC      H6R           -18.1449004929        0.7628686432      -10.4277198609  MEMB      75              0.0000000000
      9979        81  POPC      H6S           -16.5431660812        0.9901932707       -9.6673841708  MEMB      75              0.0000000000
      9980        81  POPC      C27           -17.6819985004       -0.6962223481       -8.9045754438  MEMB      75              0.0000000000
      9981        81  POPC      H7R           -18.4453424018       -1.4212420738       -9.2655218445  MEMB      75              0.0000000000
      9982        81  POPC      H7S           -18.1725312080       -0.0684954798       -8.1286769255  MEMB      75              0.0000000000
      9983        81  POPC      C28           -16.5066677611       -1.4533145348       -8.2704268952  MEMB      75              0.0000000000
      9984        81  POPC      H8R           -15.7024534038       -0.7221170153       -8.0364172043  MEMB      75              0.0000000000
      9985        81  POPC      H8S           -16.0893667927       -2.1522005270       -9.0309196849  MEMB      75              0.0000000000
      9986        81  POPC      C29           -16.9215435665       -2.1689368801       -7.0088267104  MEMB      75              0.0000000000
      9987        81  POPC      H91           -17.1324432752       -1.5143179660       -6.1494066197  MEMB      75              0.0000000000
      9988        81  POPC      C210          -17.1189479170       -3.4915714726       -6.8799967211  MEMB      75              0.0000000000
      9989        81  POPC      H101          -17.4129532091       -3.8949123237       -5.8987995977  MEMB      75              0.0000000000
      9990        81  POPC      C211          -16.9653381472       -4.5062124636       -7.9832398032  MEMB      75              0.0000000000
      9991        81  POPC      H11R          -17.4465592483       -4.1160634315       -8.9104902593  MEMB      75              0.0000000000
      9992        81  POPC      H11S          -17.5142084926       -5.4401317297       -7.7276516019  MEMB      75              0.0000000000
      9993        81  POPC      C212          -15.5144630071       -4.8855692616       -8.3372106286  MEMB      75              0.0000000000
      9994        81  POPC      H12R          -14.9013518600       -3.9830140516       -8.5498583747  MEMB      75              0.0000000000
      9995        81  POPC      H12S          -15.5667362905       -5.4722750215       -9.2871413471  MEMB      75              0.0000000000
      9996        81  POPC      C213          -14.8195152836       -5.7646307685       -7.2865880139  MEMB      75              0.0000000000
      9997        81  POPC      H13R          -14.1299807742       -6.4412824222       -7.8403597539  MEMB      75              0.0000000000
      9998        81  POPC      H13S          -15.5616030747       -6.4055463240       -6.7648045569  MEMB      75              0.0000000000
      9999        81  POPC      C214          -13.9501154201       -4.9913491803       -6.2858261077  MEMB      75              0.0000000000
     10000        81  POPC      H14R          -14.5814326201       -4.3928441456       -5.5942734071  MEMB      75              0.0000000000
     10001        81  POPC      H14S          -13.3205729483       -4.2753257028       -6.8635990642  MEMB      75              0.0000000000
     10002        81  POPC      C215          -13.0087752448       -5.9145936251       -5.4944372621  MEMB      75              0.0000000000
     10003        81  POPC      H15R          -12.1932463359       -5.3005078277       -5.0514688945  MEMB      75              0.0000000000
     10004        81  POPC      H15S          -12.5339327318       -6.6395914340       -6.1940913754  MEMB      75              0.0000000000
     10005        81  POPC      C216          -13.7079386858       -6.6856913843       -4.3666632282  MEMB      75              0.0000000000
     10006        81  POPC      H16R          -14.5770081552       -7.2435527959       -4.7816402350  MEMB      75              0.0000000000
     10007        81  POPC      H16S          -14.0968294915       -5.9615548400       -3.6167987997  MEMB      75              0.0000000000
     10008        81  POPC      C217          -12.7721347433       -7.6843943547       -3.6725086283  MEMB      75              0.0000000000
     10009        81  POPC      H17R          -11.8329670452       -7.1604354712       -3.3806497216  MEMB      75              0.0000000000
     10010        81  POPC      H17S          -12.4990143999       -8.4759454941       -4.4083780336  MEMB      75              0.0000000000
     10011        81  POPC      C218          -13.3879309656       -8.3373751761       -2.4314372419  MEMB      75              0.0000000000
     10012        81  POPC      H18R          -12.7178636015       -9.1300746175       -2.0329858107  MEMB      75              0.0000000000
     10013        81  POPC      H18S          -14.3691755441       -8.7957946674       -2.6810478031  MEMB      75              0.0000000000
     10014        81  POPC      H18T          -13.5500627842       -7.5774187738       -1.6367212225  MEMB      75              0.0000000000
     10015        81  POPC      C33           -12.9391158196       -4.0791811821      -13.3193124282  MEMB      75              0.0000000000
     10016        81  POPC      H3X           -13.8627759129       -3.4951716452      -13.1046661788  MEMB      75              0.0000000000
     10017        81  POPC      H3Y           -12.8507356315       -4.1533538297      -14.4299583459  MEMB      75              0.0000000000
     10018        81  POPC      C34           -11.7182269454       -3.2874931508      -12.8418686594  MEMB      75              0.0000000000
     10019        81  POPC      H4X           -11.7127319008       -2.3122130261      -13.3845366200  MEMB      75              0.0000000000
     10020        81  POPC      H4Y           -10.7996360336       -3.8408671593      -13.1429003011  MEMB      75              0.0000000000
     10021        81  POPC      C35           -11.6848514493       -3.0242405017      -11.3329048526  MEMB      75              0.0000000000
     10022        81  POPC      H5X           -11.6260619450       -3.9961636873      -10.7935438820  MEMB      75              0.0000000000
     10023        81  POPC      H5Y           -12.6217405675       -2.5105250301      -11.0210882912  MEMB      75              0.0000000000
     10024        81  POPC      C36           -10.4661941533       -2.1744137162      -10.9542403407  MEMB      75              0.0000000000
     10025        81  POPC      H6X           -10.5868734550       -1.1422811847      -11.3508661248  MEMB      75              0.0000000000
     10026        81  POPC      H6Y            -9.5892799707       -2.6241189880      -11.4685408082  MEMB      75              0.0000000000
     10027        81  POPC      C37           -10.1745123304       -2.1475249312       -9.4478823613  MEMB      75              0.0000000000
     10028        81  POPC      H7X            -9.1432997138       -1.7594880918       -9.2845196176  MEMB      75              0.0000000000
     10029        81  POPC      H7Y           -10.2061659133       -3.1881003300       -9.0537194144  MEMB      75              0.0000000000
     10030        81  POPC      C38           -11.1475487891       -1.2633711728       -8.6615714540  MEMB      75              0.0000000000
     10031        81  POPC      H8X           -12.1921397730       -1.5267255220       -8.9446825693  MEMB      75              0.0000000000
     10032        81  POPC      H8Y           -10.9734634082       -0.1998024757       -8.9435036053  MEMB      75              0.0000000000
     10033        81  POPC      C39           -10.9914731967       -1.4232966012       -7.1419372084  MEMB      75              0.0000000000
     10034        81  POPC      H9X            -9.9128457564       -1.3611354122       -6.8729263355  MEMB      75              0.0000000000
     10035        81  POPC      H9Y           -11.3551976295       -2.4353098184       -6.8507594472  MEMB      75              0.0000000000
     10036        81  POPC      C310          -11.7645280368       -0.3661056828       -6.3386502816  MEMB      75              0.0000000000
     10037        81  POPC      H10X          -11.3081083856        0.6330614084       -6.5207499035  MEMB      75              0.0000000000
     10038        81  POPC      H10Y          -11.6554801392       -0.5910368174       -5.2552403237  MEMB      75              0.0000000000
     10039        81  POPC      C311          -13.2542187993       -0.2951578937       -6.7019981906  MEMB      75              0.0000000000
     10040        81  POPC      H11X          -13.7266489389       -1.2973823717       -6.5963489472  MEMB      75              0.0000000000
     10041        81  POPC      H11Y          -13.3350318148       -0.0034188692       -7.7741701667  MEMB      75              0.0000000000
     10042        81  POPC      C312          -14.0371508676        0.7429322223       -5.8861583846  MEMB      75              0.0000000000
     10043        81  POPC      H12X          -14.7844066035        1.2155108714       -6.5669546886  MEMB      75              0.0000000000
     10044        81  POPC      H12Y          -13.3486370978        1.5409108233       -5.5352994084  MEMB      75              0.0000000000
     10045        81  POPC      C313          -14.8207258294        0.1556309664       -4.7061721405  MEMB      75              0.0000000000
     10046        81  POPC      H13X          -15.4996658177       -0.6293666787       -5.0997130399  MEMB      75              0.0000000000
     10047        81  POPC      H13Y          -15.4568979427        0.9593332156       -4.2693214878  MEMB      75              0.0000000000
     10048        81  POPC      C314          -13.9454144392       -0.4389799676       -3.5968601757  MEMB      75              0.0000000000
     10049        81  POPC      H14X          -13.2358012391        0.3421351527       -3.2439038289  MEMB      75              0.0000000000
     10050        81  POPC      H14Y          -13.3486652661       -1.2880464484       -4.0005946386  MEMB      75              0.0000000000
     10051        81  POPC      C315          -14.7665866802       -0.9430103087       -2.4056356418  MEMB      75              0.0000000000
     10052        81  POPC      H15X          -15.3675600279       -0.0952185407       -2.0050671234  MEMB      75              0.0000000000
     10053        81  POPC      H15Y          -14.0655045953       -1.2495643024       -1.5991892310  MEMB      75              0.0000000000
     10054        81  POPC      C316          -15.6943569701       -2.1140740447       -2.7398435970  MEMB      75              0.0000000000
     10055        81  POPC      H16X          -15.1236391842       -2.9791663732       -3.1382994387  MEMB      75              0.0000000000
     10056        81  POPC      H16Y          -16.4465014312       -1.8159184948       -3.5004988877  MEMB      75              0.0000000000
     10057        81  POPC      H16Z          -16.2369669761       -2.4410127414       -1.8297186829  MEMB      75              0.0000000000
     10058        82  POPS      N              13.7376925345        8.1229553718      -20.2410407820  MEMB      76              0.0000000000
     10059        82  POPS      HN1            13.7640362525        8.8863703168      -20.9617983179  MEMB      76              0.0000000000
     10060        82  POPS      HN2            12.9998931646        7.4125410387      -20.4467196914  MEMB      76              0.0000000000
     10061        82  POPS      HN3            13.6644440684        8.4938413321      -19.2677833882  MEMB      76              0.0000000000
     10062        82  POPS      C12            15.0684104612        7.4627673951      -20.4250552377  MEMB      76              0.0000000000
     10063        82  POPS      H12A           15.6014110269        7.5228216093      -19.4948427825  MEMB      76              0.0000000000
     10064        82  POPS      C13            15.8776588715        8.2323061709      -21.4769512293  MEMB      76              0.0000000000
     10065        82  POPS      O13A           15.3415952426        9.2291787648      -22.0363879394  MEMB      76              0.0000000000
     10066        82  POPS      O13B           17.0586000852        7.8873577497      -21.7142146387  MEMB      76              0.0000000000
     10067        82  POPS      C11            14.8907184277        5.9629096021      -20.7813400858  MEMB      76              0.0000000000
     10068        82  POPS      H11A           15.8485274357        5.4278023350      -20.5673321458  MEMB      76              0.0000000000
     10069        82  POPS      H11B           14.7089956706        5.8524013271      -21.8744545780  MEMB      76              0.0000000000
     10070        82  POPS      P              13.9464629869        4.8363493083      -18.6002027507  MEMB      76              0.0000000000
     10071        82  POPS      O13            15.1365845382        3.9589652544      -18.5411746583  MEMB      76              0.0000000000
     10072        82  POPS      O14            12.6309778568        4.2452013996      -18.2869545402  MEMB      76              0.0000000000
     10073        82  POPS      O12            13.7921577113        5.3746712510      -20.0771620485  MEMB      76              0.0000000000
     10074        82  POPS      O11            14.1516320347        6.2145772340      -17.8168900238  MEMB      76              0.0000000000
     10075        82  POPS      C1             13.0425268503        6.7421088870      -17.0713306904  MEMB      76              0.0000000000
     10076        82  POPS      HA             12.7439990981        6.0095345303      -16.2828201159  MEMB      76              0.0000000000
     10077        82  POPS      HB             12.1657758642        6.9085267097      -17.7374036046  MEMB      76              0.0000000000
     10078        82  POPS      C2             13.3665555517        8.0976762508      -16.3616056875  MEMB      76              0.0000000000
     10079        82  POPS      HS             13.0364627309        8.9183610997      -17.0283356478  MEMB      76              0.0000000000
     10080        82  POPS      O21            14.7551758927        8.1941696200      -16.1041806492  MEMB      76              0.0000000000
     10081        82  POPS      C21            15.5388886070        8.7607655200      -16.9646375542  MEMB      76              0.0000000000
     10082        82  POPS      O22            15.1921257509        9.3471667458      -17.9844226034  MEMB      76              0.0000000000
     10083        82  POPS      C22            16.9741291841        8.6282522014      -16.4423882536  MEMB      76              0.0000000000
     10084        82  POPS      H2R            17.4890832454        9.5905565238      -16.6140966008  MEMB      76              0.0000000000
     10085        82  POPS      H2S            17.4659798107        7.8382190408      -17.0493811159  MEMB      76              0.0000000000
     10086        82  POPS      C3             12.6547423439        8.3099001650      -15.0002430479  MEMB      76              0.0000000000
     10087        82  POPS      HX             11.6023668054        8.5916238404      -15.1985386966  MEMB      76              0.0000000000
     10088        82  POPS      HY             13.1243177051        9.2000506912      -14.5260270519  MEMB      76              0.0000000000
     10089        82  POPS      O31            12.7376726956        7.1267803627      -14.1759959966  MEMB      76              0.0000000000
     10090        82  POPS      C31            13.5125779946        7.2085800838      -13.0943303710  MEMB      76              0.0000000000
     10091        82  POPS      O32            13.9040278292        8.2361027148      -12.5731968180  MEMB      76              0.0000000000
     10092        82  POPS      C32            13.8760291311        5.8033663758      -12.6203464396  MEMB      76              0.0000000000
     10093        82  POPS      H2X            14.9824444195        5.7222414162      -12.6404378409  MEMB      76              0.0000000000
     10094        82  POPS      H2Y            13.4571028811        5.0699263293      -13.3407875701  MEMB      76              0.0000000000
     10095        82  POPS      C23            17.0402455943        8.2680451653      -14.9345579019  MEMB      76              0.0000000000
     10096        82  POPS      H3R            16.2265296357        7.5564881486      -14.6541204257  MEMB      76              0.0000000000
     10097        82  POPS      H3S            16.8901249982        9.1670336103      -14.2954260887  MEMB      76              0.0000000000
     10098        82  POPS      C24            18.2904327686        7.4966484193      -14.5229446991  MEMB      76              0.0000000000
     10099        82  POPS      H4R            19.1390613604        8.1829559907      -14.3158883292  MEMB      76              0.0000000000
     10100        82  POPS      H4S            18.5897663926        6.8309941476      -15.3662728659  MEMB      76              0.0000000000
     10101        82  POPS      C25            17.9660096292        6.5951611649      -13.3200052635  MEMB      76              0.0000000000
     10102        82  POPS      H5R            18.8458909406        5.9815784240      -13.0890218574  MEMB      76              0.0000000000
     10103        82  POPS      H5S            17.1617385056        5.8838768216      -13.6227348072  MEMB      76              0.0000000000
     10104        82  POPS      C26            17.5059294410        7.3322536100      -12.0520850955  MEMB      76              0.0000000000
     10105        82  POPS      H6R            17.3305534455        6.5873426602      -11.2447369019  MEMB      76              0.0000000000
     10106        82  POPS      H6S            16.5263064281        7.8170400529      -12.2580520514  MEMB      76              0.0000000000
     10107        82  POPS      C27            18.4976184807        8.3889359838      -11.5352766281  MEMB      76              0.0000000000
     10108        82  POPS      H7R            18.6631392962        9.1575512863      -12.3218138357  MEMB      76              0.0000000000
     10109        82  POPS      H7S            19.4735714922        7.8932797371      -11.3423113932  MEMB      76              0.0000000000
     10110        82  POPS      C28            18.0233207488        9.0885133865      -10.2462564514  MEMB      76              0.0000000000
     10111        82  POPS      H8R            18.7460270292        9.8809529398       -9.9662486718  MEMB      76              0.0000000000
     10112        82  POPS      H8S            18.0341997324        8.3381574776       -9.4247245645  MEMB      76              0.0000000000
     10113        82  POPS      C29            16.6691076012        9.7188993352      -10.4290138052  MEMB      76              0.0000000000
     10114        82  POPS      H91            16.5269711077       10.2745560779      -11.3687438307  MEMB      76              0.0000000000
     10115        82  POPS      C210           15.6406874737        9.6154879631       -9.5782694853  MEMB      76              0.0000000000
     10116        82  POPS      H101           14.6776508395       10.0637842050       -9.8710078758  MEMB      76              0.0000000000
     10117        82  POPS      C211           15.6543814803        8.8489849597       -8.2790271331  MEMB      76              0.0000000000
     10118        82  POPS      H11R           16.1143643670        7.8450264512       -8.4221870735  MEMB      76              0.0000000000
     10119        82  POPS      H11S           14.6043446635        8.6738567317       -7.9626598407  MEMB      76              0.0000000000
     10120        82  POPS      C212           16.4064152525        9.5591129168       -7.1320661847  MEMB      76              0.0000000000
     10121        82  POPS      H12R           15.8873847485       10.5179932008       -6.9082392026  MEMB      76              0.0000000000
     10122        82  POPS      H12S           17.4428936323        9.8075240917       -7.4533707482  MEMB      76              0.0000000000
     10123        82  POPS      C213           16.4813903511        8.7324745493       -5.8330587282  MEMB      76              0.0000000000
     10124        82  POPS      H13R           16.9172170076        9.3705632957       -5.0322484566  MEMB      76              0.0000000000
     10125        82  POPS      H13S           17.1634294158        7.8653236167       -5.9823702259  MEMB      76              0.0000000000
     10126        82  POPS      C214           15.1146496833        8.2047768467       -5.3796050615  MEMB      76              0.0000000000
     10127        82  POPS      H14R           14.7946143608        7.4125085122       -6.0933516527  MEMB      76              0.0000000000
     10128        82  POPS      H14S           14.3725941824        9.0288578619       -5.4399689050  MEMB      76              0.0000000000
     10129        82  POPS      C215           15.0965827657        7.6011701198       -3.9680797857  MEMB      76              0.0000000000
     10130        82  POPS      H15R           15.9446801216        6.8941929756       -3.8415211865  MEMB      76              0.0000000000
     10131        82  POPS      H15S           14.1568381979        7.0092112307       -3.8839768327  MEMB      76              0.0000000000
     10132        82  POPS      C216           15.0906567413        8.6479996820       -2.8439869323  MEMB      76              0.0000000000
     10133        82  POPS      H16R           14.3146039766        9.4135886000       -3.0742904463  MEMB      76              0.0000000000
     10134        82  POPS      H16S           16.0728368551        9.1677394375       -2.7987485515  MEMB      76              0.0000000000
     10135        82  POPS      C217           14.7656853936        8.0283695525       -1.4779538411  MEMB      76              0.0000000000
     10136        82  POPS      H17R           15.5880176997        7.3339173451       -1.1939292211  MEMB      76              0.0000000000
     10137        82  POPS      H17S           13.8371702253        7.4220870022       -1.5740779427  MEMB      76              0.0000000000
     10138        82  POPS      C218           14.5407883749        9.0573245848       -0.3677960083  MEMB      76              0.0000000000
     10139        82  POPS      H18R           15.4599689388        9.6562624758       -0.1984263833  MEMB      76              0.0000000000
     10140        82  POPS      H18S           14.2656014787        8.5495500664        0.5814168501  MEMB      76              0.0000000000
     10141        82  POPS      H18T           13.7113367914        9.7425483056       -0.6442735136  MEMB      76              0.0000000000
     10142        82  POPS      C33            13.3562763927        5.4910410671      -11.1994209122  MEMB      76              0.0000000000
     10143        82  POPS      H3X            13.5249422530        4.4062655691      -11.0088884247  MEMB      76              0.0000000000
     10144        82  POPS      H3Y            12.2629060386        5.6801369013      -11.1403580894  MEMB      76              0.0000000000
     10145        82  POPS      C34            14.0519642207        6.2902811248      -10.0874098236  MEMB      76              0.0000000000
     10146        82  POPS      H4X            13.7057661273        7.3475384045      -10.1466508428  MEMB      76              0.0000000000
     10147        82  POPS      H4Y            15.1537102942        6.2944791269      -10.2419099652  MEMB      76              0.0000000000
     10148        82  POPS      C35            13.7417359526        5.7406178424       -8.6879098249  MEMB      76              0.0000000000
     10149        82  POPS      H5X            12.6854271347        5.3928724822       -8.6584992126  MEMB      76              0.0000000000
     10150        82  POPS      H5Y            13.8428926433        6.5536166556       -7.9364343805  MEMB      76              0.0000000000
     10151        82  POPS      C36            14.6860678559        4.5981154896       -8.2885947622  MEMB      76              0.0000000000
     10152        82  POPS      H6X            15.6814889622        5.0162118905       -8.0181011507  MEMB      76              0.0000000000
     10153        82  POPS      H6Y            14.8326770711        3.9336300440       -9.1707256041  MEMB      76              0.0000000000
     10154        82  POPS      C37            14.1416884078        3.7377980264       -7.1431996780  MEMB      76              0.0000000000
     10155        82  POPS      H7X            14.8154242318        2.8631867882       -6.9961509450  MEMB      76              0.0000000000
     10156        82  POPS      H7Y            13.1484110541        3.3388982541       -7.4517449817  MEMB      76              0.0000000000
     10157        82  POPS      C38            13.9857776018        4.4622749493       -5.7962259260  MEMB      76              0.0000000000
     10158        82  POPS      H8X            13.4050639708        5.4008066074       -5.9246637233  MEMB      76              0.0000000000
     10159        82  POPS      H8Y            14.9882976506        4.7321171917       -5.3966334314  MEMB      76              0.0000000000
     10160        82  POPS      C39            13.2560885241        3.5466432070       -4.8072487118  MEMB      76              0.0000000000
     10161        82  POPS      H9X            13.8036694369        2.5761326624       -4.7792946645  MEMB      76              0.0000000000
     10162        82  POPS      H9Y            12.2468668513        3.3462671490       -5.2181731406  MEMB      76              0.0000000000
     10163        82  POPS      C310           13.1329191050        4.0515241560       -3.3619035820  MEMB      76              0.0000000000
     10164        82  POPS      H10X           14.1397675183        4.3628013702       -3.0024532609  MEMB      76              0.0000000000
     10165        82  POPS      H10Y           12.8154620690        3.1845333051       -2.7435700859  MEMB      76              0.0000000000
     10166        82  POPS      C311           12.1275386145        5.1953777097       -3.1441115821  MEMB      76              0.0000000000
     10167        82  POPS      H11X           11.7724451588        5.5764826078       -4.1270230704  MEMB      76              0.0000000000
     10168        82  POPS      H11Y           12.6634348953        6.0328360365       -2.6499529171  MEMB      76              0.0000000000
     10169        82  POPS      C312           10.9002976262        4.8677849837       -2.2648445516  MEMB      76              0.0000000000
     10170        82  POPS      H12X           10.1942762789        4.2249343074       -2.8282399333  MEMB      76              0.0000000000
     10171        82  POPS      H12Y           10.3703074875        5.8236797821       -2.0662124167  MEMB      76              0.0000000000
     10172        82  POPS      C313           11.1673598388        4.1726673074       -0.9169007073  MEMB      76              0.0000000000
     10173        82  POPS      H13X           11.4479668487        3.1150065985       -1.1032377982  MEMB      76              0.0000000000
     10174        82  POPS      H13Y           10.2127310776        4.1539608559       -0.3452707034  MEMB      76              0.0000000000
     10175        82  POPS      C314           12.2669314775        4.8080705649       -0.0574038280  MEMB      76              0.0000000000
     10176        82  POPS      H14X           11.9885003912        5.8500969376        0.2105273891  MEMB      76              0.0000000000
     10177        82  POPS      H14Y           13.2081268136        4.8539481505       -0.6502540725  MEMB      76              0.0000000000
     10178        82  POPS      C315           12.5559940765        3.9938427767        1.2128821753  MEMB      76              0.0000000000
     10179        82  POPS      H15X           13.4890312339        4.3966352872        1.6632680323  MEMB      76              0.0000000000
     10180        82  POPS      H15Y           12.7548505694        2.9373472490        0.9247073066  MEMB      76              0.0000000000
     10181        82  POPS      C316           11.4519427577        4.0350440383        2.2734276984  MEMB      76              0.0000000000
     10182        82  POPS      H16X           10.4711127716        3.7414366239        1.8446263122  MEMB      76              0.0000000000
     10183        82  POPS      H16Y           11.3664447660        5.0614636888        2.6887522957  MEMB      76              0.0000000000
     10184        82  POPS      H16Z           11.6902136625        3.3460786200        3.1119424855  MEMB      76              0.0000000000
     10185        83  POPC      N              12.7383198752       -9.5105717946      -19.8417030579  MEMB      77              0.0000000000
     10186        83  POPC      C12            12.7442129370      -10.9951561113      -19.4774565271  MEMB      77              0.0000000000
     10187        83  POPC      H12A           13.5736806771      -11.2073703651      -18.8172886730  MEMB      77              0.0000000000
     10188        83  POPC      H12B           12.9086491169      -11.5656777819      -20.3834442656  MEMB      77              0.0000000000
     10189        83  POPC      C13            13.9597525239       -8.8168999475      -19.3400464878  MEMB      77              0.0000000000
     10190        83  POPC      H13A           14.8442598366       -9.1041251693      -19.9068237544  MEMB      77              0.0000000000
     10191        83  POPC      H13B           13.8560556591       -7.7430477180      -19.4059911387  MEMB      77              0.0000000000
     10192        83  POPC      H13C           14.1604009339       -9.0695940353      -18.3070747809  MEMB      77              0.0000000000
     10193        83  POPC      C14            12.6456858083       -9.3594284394      -21.3243775364  MEMB      77              0.0000000000
     10194        83  POPC      H14A           12.5918403395       -8.3129501384      -21.6210394864  MEMB      77              0.0000000000
     10195        83  POPC      H14B           13.4930349087       -9.8051222605      -21.8367988157  MEMB      77              0.0000000000
     10196        83  POPC      H14C           11.7313216716       -9.8274915244      -21.6806341692  MEMB      77              0.0000000000
     10197        83  POPC      C15            11.5011503411       -8.8736486680      -19.3121690261  MEMB      77              0.0000000000
     10198        83  POPC      H15A           11.5402133576       -8.7848659845      -18.2400255112  MEMB      77              0.0000000000
     10199        83  POPC      H15B           10.6520318770       -9.5360400017      -19.5147426444  MEMB      77              0.0000000000
     10200        83  POPC      H15C           11.2775116960       -7.9308495603      -19.7921693248  MEMB      77              0.0000000000
     10201        83  POPC      C11            11.4721672334      -11.6015898768      -18.8285427313  MEMB      77              0.0000000000
     10202        83  POPC      H11A           11.3150444692      -11.0998203564      -17.8408340065  MEMB      77              0.0000000000
     10203        83  POPC      H11B           11.6781646153      -12.6756757395      -18.6163021238  MEMB      77              0.0000000000
     10204        83  POPC      P               8.8757620584      -11.4268299539      -19.0260395654  MEMB      77              0.0000000000
     10205        83  POPC      O13             7.9443984443      -12.1668104418      -19.9280807092  MEMB      77              0.0000000000
     10206        83  POPC      O14             8.6486893250       -9.9976683752      -18.7187669932  MEMB      77              0.0000000000
     10207        83  POPC      O12            10.3289205348      -11.5160037580      -19.6949835942  MEMB      77              0.0000000000
     10208        83  POPC      O11             9.1522428410      -12.2719828914      -17.7247565435  MEMB      77              0.0000000000
     10209        83  POPC      C1              9.1860962242      -13.7129411798      -17.7134477550  MEMB      77              0.0000000000
     10210        83  POPC      HA             10.1349008674      -14.1055030121      -18.1328799694  MEMB      77              0.0000000000
     10211        83  POPC      HB              8.3513535422      -14.1363038504      -18.3233523182  MEMB      77              0.0000000000
     10212        83  POPC      C2              8.9931766812      -14.2928230612      -16.2771731461  MEMB      77              0.0000000000
     10213        83  POPC      HS              8.5411775036      -15.3060514186      -16.3664852096  MEMB      77              0.0000000000
     10214        83  POPC      O21             8.0715441446      -13.4158928469      -15.6426110263  MEMB      77              0.0000000000
     10215        83  POPC      C21             7.6667884001      -13.5755247062      -14.4398467473  MEMB      77              0.0000000000
     10216        83  POPC      O22             7.6914770196      -14.5752762251      -13.7416330732  MEMB      77              0.0000000000
     10217        83  POPC      C22             7.2374415346      -12.1957273394      -13.9841360881  MEMB      77              0.0000000000
     10218        83  POPC      H2R             6.6606517077      -12.2641376950      -13.0436789059  MEMB      77              0.0000000000
     10219        83  POPC      H2S             6.5933899600      -11.7524154056      -14.7802071692  MEMB      77              0.0000000000
     10220        83  POPC      C3             10.3346435724      -14.4388596233      -15.4582875563  MEMB      77              0.0000000000
     10221        83  POPC      HX             10.9845442644      -15.1032277924      -16.0727615034  MEMB      77              0.0000000000
     10222        83  POPC      HY             10.1014499528      -14.9869761525      -14.5156325424  MEMB      77              0.0000000000
     10223        83  POPC      O31            11.0371817651      -13.2010840888      -15.1803528485  MEMB      77              0.0000000000
     10224        83  POPC      C31            12.2556455918      -13.3966670877      -14.6551310370  MEMB      77              0.0000000000
     10225        83  POPC      O32            12.7401878260      -14.4811293089      -14.3918017087  MEMB      77              0.0000000000
     10226        83  POPC      C32            13.0120765028      -12.0737209880      -14.5739334499  MEMB      77              0.0000000000
     10227        83  POPC      H2X            12.9636804667      -11.6050162502      -15.5793043704  MEMB      77              0.0000000000
     10228        83  POPC      H2Y            14.0719918798      -12.3168329856      -14.3541802043  MEMB      77              0.0000000000
     10229        83  POPC      C23             8.5069305953      -11.3389112511      -13.7984714520  MEMB      77              0.0000000000
     10230        83  POPC      H3R             9.2315256960      -11.4916574564      -14.6351941498  MEMB      77              0.0000000000
     10231        83  POPC      H3S             9.0168634117      -11.6294323062      -12.8525133714  MEMB      77              0.0000000000
     10232        83  POPC      C24             8.1576900391       -9.8634675115      -13.7885926910  MEMB      77              0.0000000000
     10233        83  POPC      H4R             7.0726915984       -9.7683449018      -13.5803138726  MEMB      77              0.0000000000
     10234        83  POPC      H4S             8.3347400737       -9.4166911033      -14.7938026261  MEMB      77              0.0000000000
     10235        83  POPC      C25             8.8683224115       -9.0682763858      -12.7060584404  MEMB      77              0.0000000000
     10236        83  POPC      H5R             9.9659238558       -9.1333370048      -12.8614853365  MEMB      77              0.0000000000
     10237        83  POPC      H5S             8.6432728455       -9.5011508495      -11.7080317184  MEMB      77              0.0000000000
     10238        83  POPC      C26             8.4060360386       -7.6102119590      -12.7661532601  MEMB      77              0.0000000000
     10239        83  POPC      H6R             7.2996191911       -7.5717990313      -12.8803048540  MEMB      77              0.0000000000
     10240        83  POPC      H6S             8.8660256660       -7.1644661766      -13.6752831304  MEMB      77              0.0000000000
     10241        83  POPC      C27             8.7802642590       -6.7928637820      -11.5338489093  MEMB      77              0.0000000000
     10242        83  POPC      H7R             8.3039461050       -7.2530864808      -10.6453149394  MEMB      77              0.0000000000
     10243        83  POPC      H7S             8.3582055647       -5.7688268064      -11.6337383122  MEMB      77              0.0000000000
     10244        83  POPC      C28            10.2960765786       -6.7260790317      -11.3650792728  MEMB      77              0.0000000000
     10245        83  POPC      H8R            10.7127070156       -6.2284878539      -12.2685121796  MEMB      77              0.0000000000
     10246        83  POPC      H8S            10.7148808976       -7.7556204253      -11.3417685109  MEMB      77              0.0000000000
     10247        83  POPC      C29            10.7049913471       -5.9509985048      -10.1579752430  MEMB      77              0.0000000000
     10248        83  POPC      H91            10.5313914567       -4.8759285662      -10.2422448151  MEMB      77              0.0000000000
     10249        83  POPC      C210           11.2210462933       -6.4361104738       -9.0269277596  MEMB      77              0.0000000000
     10250        83  POPC      H101           11.4923303446       -5.7174878838       -8.2433252198  MEMB      77              0.0000000000
     10251        83  POPC      C211           11.5056331144       -7.8787524542       -8.7038111529  MEMB      77              0.0000000000
     10252        83  POPC      H11R           12.4306504333       -8.2323435293       -9.2101318941  MEMB      77              0.0000000000
     10253        83  POPC      H11S           10.6670987170       -8.5430518031       -9.0170847975  MEMB      77              0.0000000000
     10254        83  POPC      C212           11.6871233291       -7.9634017925       -7.1827709132  MEMB      77              0.0000000000
     10255        83  POPC      H12R           10.7858425473       -7.5354804976       -6.6841385472  MEMB      77              0.0000000000
     10256        83  POPC      H12S           12.5719493047       -7.3583573440       -6.8781851308  MEMB      77              0.0000000000
     10257        83  POPC      C213           11.8484690385       -9.3822414433       -6.6360489547  MEMB      77              0.0000000000
     10258        83  POPC      H13R           11.1047606807      -10.0519675787       -7.1120528607  MEMB      77              0.0000000000
     10259        83  POPC      H13S           11.5963273093       -9.3455447728       -5.5523193351  MEMB      77              0.0000000000
     10260        83  POPC      C214           13.2735785946       -9.9274410044       -6.7967029209  MEMB      77              0.0000000000
     10261        83  POPC      H14R           13.9916445703       -9.1394692525       -6.4816767108  MEMB      77              0.0000000000
     10262        83  POPC      H14S           13.4596310374      -10.1509760992       -7.8709150261  MEMB      77              0.0000000000
     10263        83  POPC      C215           13.5305781385      -11.1804275295       -5.9474648874  MEMB      77              0.0000000000
     10264        83  POPC      H15R           14.4426986980      -11.7062001858       -6.3100507747  MEMB      77              0.0000000000
     10265        83  POPC      H15S           12.6700301111      -11.8743803810       -6.0682963197  MEMB      77              0.0000000000
     10266        83  POPC      C216           13.7126541190      -10.8494352246       -4.4605935297  MEMB      77              0.0000000000
     10267        83  POPC      H16R           13.0037530108      -10.0450978540       -4.1623396936  MEMB      77              0.0000000000
     10268        83  POPC      H16S           14.7387726523      -10.4530349929       -4.2888923836  MEMB      77              0.0000000000
     10269        83  POPC      C217           13.4558263768      -12.0434471029       -3.5402359225  MEMB      77              0.0000000000
     10270        83  POPC      H17R           14.2030578469      -12.8418900525       -3.7503427757  MEMB      77              0.0000000000
     10271        83  POPC      H17S           12.4432271908      -12.4576175841       -3.7581686218  MEMB      77              0.0000000000
     10272        83  POPC      C218           13.5232136975      -11.6349732677       -2.0706556154  MEMB      77              0.0000000000
     10273        83  POPC      H18R           13.2576808519      -12.4872302669       -1.4103217747  MEMB      77              0.0000000000
     10274        83  POPC      H18S           12.8118486002      -10.8060746052       -1.8680959804  MEMB      77              0.0000000000
     10275        83  POPC      H18T           14.5428124792      -11.2737083775       -1.8129747465  MEMB      77              0.0000000000
     10276        83  POPC      C33            12.4623330354      -11.0882218876      -13.5185260950  MEMB      77              0.0000000000
     10277        83  POPC      H3X            11.4664491108      -11.3934675587      -13.1334856384  MEMB      77              0.0000000000
     10278        83  POPC      H3Y            12.3103616544      -10.1114348933      -14.0344198937  MEMB      77              0.0000000000
     10279        83  POPC      C34            13.4488500714      -10.8611457752      -12.3630084911  MEMB      77              0.0000000000
     10280        83  POPC      H4X            13.1628937680       -9.9325865534      -11.8179103906  MEMB      77              0.0000000000
     10281        83  POPC      H4Y            14.4550471746      -10.6973887426      -12.8092054113  MEMB      77              0.0000000000
     10282        83  POPC      C35            13.5341256830      -12.0126576582      -11.3514380089  MEMB      77              0.0000000000
     10283        83  POPC      H5X            14.4254836354      -11.8519123879      -10.7022608151  MEMB      77              0.0000000000
     10284        83  POPC      H5Y            13.6801811674      -12.9806831481      -11.8810524537  MEMB      77              0.0000000000
     10285        83  POPC      C36            12.2991899746      -12.0832581075      -10.4449860717  MEMB      77              0.0000000000
     10286        83  POPC      H6X            11.4009227562      -12.3067226286      -11.0611283504  MEMB      77              0.0000000000
     10287        83  POPC      H6Y            12.1453217554      -11.0825392734       -9.9780686451  MEMB      77              0.0000000000
     10288        83  POPC      C37            12.4340287787      -13.1271305488       -9.3316939287  MEMB      77              0.0000000000
     10289        83  POPC      H7X            13.4070860020      -12.9706439148       -8.8115372490  MEMB      77              0.0000000000
     10290        83  POPC      H7Y            12.4471116563      -14.1466009364       -9.7762947021  MEMB      77              0.0000000000
     10291        83  POPC      C38            11.3111531488      -13.0216017164       -8.2886571734  MEMB      77              0.0000000000
     10292        83  POPC      H8X            11.3409162297      -11.9949256448       -7.8696883005  MEMB      77              0.0000000000
     10293        83  POPC      H8Y            11.5121891351      -13.7180073948       -7.4481170737  MEMB      77              0.0000000000
     10294        83  POPC      C39             9.9083894885      -13.2854627007       -8.8532128827  MEMB      77              0.0000000000
     10295        83  POPC      H9X             9.9077174759      -14.2441145238       -9.4182235808  MEMB      77              0.0000000000
     10296        83  POPC      H9Y             9.6618053922      -12.4688392974       -9.5696838027  MEMB      77              0.0000000000
     10297        83  POPC      C310            8.8016663453      -13.3290144132       -7.7871805263  MEMB      77              0.0000000000
     10298        83  POPC      H10X            8.8418965245      -14.3002104362       -7.2439766369  MEMB      77              0.0000000000
     10299        83  POPC      H10Y            7.8192698460      -13.2725741759       -8.3098790017  MEMB      77              0.0000000000
     10300        83  POPC      C311            8.9063866201      -12.1864929341       -6.7685357697  MEMB      77              0.0000000000
     10301        83  POPC      H11X            9.1957182734      -11.2539150299       -7.3038109601  MEMB      77              0.0000000000
     10302        83  POPC      H11Y            9.7185904278      -12.4125879239       -6.0422326364  MEMB      77              0.0000000000
     10303        83  POPC      C312            7.5965344574      -11.9171836539       -6.0185768285  MEMB      77              0.0000000000
     10304        83  POPC      H12X            7.2607952635      -12.8331896824       -5.4878850814  MEMB      77              0.0000000000
     10305        83  POPC      H12Y            6.8135154107      -11.6637344059       -6.7698365151  MEMB      77              0.0000000000
     10306        83  POPC      C313            7.7192572819      -10.7377508146       -5.0417552287  MEMB      77              0.0000000000
     10307        83  POPC      H13X            6.6981370089      -10.4038233943       -4.7514885406  MEMB      77              0.0000000000
     10308        83  POPC      H13Y            8.2114153515       -9.8885242224       -5.5678746931  MEMB      77              0.0000000000
     10309        83  POPC      C314            8.4956029210      -11.0597025695       -3.7558130671  MEMB      77              0.0000000000
     10310        83  POPC      H14X            8.5552823644      -10.1240281702       -3.1533636843  MEMB      77              0.0000000000
     10311        83  POPC      H14Y            9.5396070250      -11.3616174585       -3.9910323840  MEMB      77              0.0000000000
     10312        83  POPC      C315            7.8146498508      -12.1461758418       -2.9143923507  MEMB      77              0.0000000000
     10313        83  POPC      H15X            8.3256391838      -13.1221468360       -3.0776062525  MEMB      77              0.0000000000
     10314        83  POPC      H15Y            6.7679700513      -12.2691599421       -3.2687308493  MEMB      77              0.0000000000
     10315        83  POPC      C316            7.7619251636      -11.8173841607       -1.4241458304  MEMB      77              0.0000000000
     10316        83  POPC      H16X            7.0850637072      -12.5232934781       -0.8989452497  MEMB      77              0.0000000000
     10317        83  POPC      H16Y            7.3860557988      -10.7855383060       -1.2573890849  MEMB      77              0.0000000000
     10318        83  POPC      H16Z            8.7741081121      -11.9055617827       -0.9796312130  MEMB      77              0.0000000000
     10319        84  POPS      N              -0.6021433852       14.4897981908      -19.3115796051  MEMB      78              0.0000000000
     10320        84  POPS      HN1            -1.5558584063       14.0800964582      -19.3503005410  MEMB      78              0.0000000000
     10321        84  POPS      HN2            -0.0318638403       14.1179336481      -20.1026954957  MEMB      78              0.0000000000
     10322        84  POPS      HN3            -0.1079621908       14.3490082803      -18.3911672603  MEMB      78              0.0000000000
     10323        84  POPS      C12            -0.7070775354       15.9536495055      -19.5968767214  MEMB      78              0.0000000000
     10324        84  POPS      H12A           -0.9326173248       16.4634687235      -18.6708461728  MEMB      78              0.0000000000
     10325        84  POPS      C13            -1.8238641682       16.3069747981      -20.6050251815  MEMB      78              0.0000000000
     10326        84  POPS      O13A           -2.6255362770       15.4156130742      -21.0065143070  MEMB      78              0.0000000000
     10327        84  POPS      O13B           -1.8869762325       17.5045755294      -20.9904748775  MEMB      78              0.0000000000
     10328        84  POPS      C11             0.6549442649       16.4624229947      -20.1479138118  MEMB      78              0.0000000000
     10329        84  POPS      H11A            0.6417447582       17.5798127731      -20.1237255761  MEMB      78              0.0000000000
     10330        84  POPS      H11B            0.7399668632       16.1825001221      -21.2190342316  MEMB      78              0.0000000000
     10331        84  POPS      P               2.6184611237       16.7318618766      -18.4288937067  MEMB      78              0.0000000000
     10332        84  POPS      O13             1.9192185885       17.9757340793      -18.0448147040  MEMB      78              0.0000000000
     10333        84  POPS      O14             3.9911893675       16.8625211695      -18.9604499056  MEMB      78              0.0000000000
     10334        84  POPS      O12             1.7621276710       15.8860464735      -19.4467949424  MEMB      78              0.0000000000
     10335        84  POPS      O11             2.6352518667       15.7359923427      -17.2033074228  MEMB      78              0.0000000000
     10336        84  POPS      C1              3.0119591854       14.3772899209      -17.4995558389  MEMB      78              0.0000000000
     10337        84  POPS      HA              3.9764566980       14.3306246886      -18.0558061489  MEMB      78              0.0000000000
     10338        84  POPS      HB              2.2363152388       13.8683808589      -18.1198717557  MEMB      78              0.0000000000
     10339        84  POPS      C2              3.1831933155       13.5312211318      -16.2098623444  MEMB      78              0.0000000000
     10340        84  POPS      HS              3.1132278258       12.4537727351      -16.4866378965  MEMB      78              0.0000000000
     10341        84  POPS      O21             2.2034476154       13.8032796676      -15.2044801186  MEMB      78              0.0000000000
     10342        84  POPS      C21             0.9479749119       14.0604009150      -15.4661322309  MEMB      78              0.0000000000
     10343        84  POPS      O22             0.3539916589       14.0116555234      -16.5326929823  MEMB      78              0.0000000000
     10344        84  POPS      C22             0.2868966288       14.4034936678      -14.1290099282  MEMB      78              0.0000000000
     10345        84  POPS      H2R             0.7999842262       13.8126191914      -13.3398129394  MEMB      78              0.0000000000
     10346        84  POPS      H2S            -0.7735622390       14.0918838107      -14.1667036158  MEMB      78              0.0000000000
     10347        84  POPS      C3              4.6021651970       13.7469429109      -15.5909113219  MEMB      78              0.0000000000
     10348        84  POPS      HX              5.3240181457       13.1611881161      -16.2066656014  MEMB      78              0.0000000000
     10349        84  POPS      HY              4.6295806982       13.3017071020      -14.5681561735  MEMB      78              0.0000000000
     10350        84  POPS      O31             5.0110331098       15.1375408770      -15.6116366791  MEMB      78              0.0000000000
     10351        84  POPS      C31             4.6593080804       15.8653121121      -14.5560199612  MEMB      78              0.0000000000
     10352        84  POPS      O32             4.1733151969       15.4334861355      -13.5292039157  MEMB      78              0.0000000000
     10353        84  POPS      C32             5.0600444839       17.3258993854      -14.8115160578  MEMB      78              0.0000000000
     10354        84  POPS      H2X             4.1286869853       17.8839396730      -15.0351139724  MEMB      78              0.0000000000
     10355        84  POPS      H2Y             5.6920614127       17.3389565985      -15.7196516684  MEMB      78              0.0000000000
     10356        84  POPS      C23             0.4070434069       15.9091210369      -13.8080221913  MEMB      78              0.0000000000
     10357        84  POPS      H3R            -0.3569015319       16.4749664535      -14.3859077855  MEMB      78              0.0000000000
     10358        84  POPS      H3S             1.4111398185       16.2814891094      -14.1273373980  MEMB      78              0.0000000000
     10359        84  POPS      C24             0.2709792733       16.2185589622      -12.3102540874  MEMB      78              0.0000000000
     10360        84  POPS      H4R             1.1225909544       15.7341431084      -11.7772206520  MEMB      78              0.0000000000
     10361        84  POPS      H4S            -0.6736988192       15.7814426451      -11.9204271180  MEMB      78              0.0000000000
     10362        84  POPS      C25             0.3020238233       17.7299774135      -12.0288383582  MEMB      78              0.0000000000
     10363        84  POPS      H5R            -0.6239621269       18.1931280890      -12.4334378882  MEMB      78              0.0000000000
     10364        84  POPS      H5S             1.1657115343       18.1642585180      -12.5846598837  MEMB      78              0.0000000000
     10365        84  POPS      C26             0.4470507444       18.0832758675      -10.5382953170  MEMB      78              0.0000000000
     10366        84  POPS      H6R             0.4852056233       19.1894688244      -10.4229314516  MEMB      78              0.0000000000
     10367        84  POPS      H6S             1.4174326086       17.6740646299      -10.1784334887  MEMB      78              0.0000000000
     10368        84  POPS      C27            -0.6710255845       17.5283187499       -9.6429357514  MEMB      78              0.0000000000
     10369        84  POPS      H7R            -0.7068420593       16.4234290772       -9.7633260485  MEMB      78              0.0000000000
     10370        84  POPS      H7S            -1.6460908223       17.9258558206       -9.9879960874  MEMB      78              0.0000000000
     10371        84  POPS      C28            -0.4461827374       17.8694864278       -8.1554940631  MEMB      78              0.0000000000
     10372        84  POPS      H8R            -0.4858177211       18.9741652496       -8.0281147714  MEMB      78              0.0000000000
     10373        84  POPS      H8S             0.5947524951       17.5657412862       -7.8993323383  MEMB      78              0.0000000000
     10374        84  POPS      C29            -1.4224428040       17.2010012865       -7.2172230664  MEMB      78              0.0000000000
     10375        84  POPS      H91            -2.2554282675       17.8294425695       -6.8637262306  MEMB      78              0.0000000000
     10376        84  POPS      C210           -1.3401831982       15.9232612901       -6.8003633467  MEMB      78              0.0000000000
     10377        84  POPS      H101           -2.0916426820       15.5331576252       -6.0958782069  MEMB      78              0.0000000000
     10378        84  POPS      C211           -0.2664560835       14.9410369941       -7.1996819004  MEMB      78              0.0000000000
     10379        84  POPS      H11R            0.1133310996       15.1613807950       -8.2230987279  MEMB      78              0.0000000000
     10380        84  POPS      H11S           -0.6947129555       13.9158175549       -7.2426936309  MEMB      78              0.0000000000
     10381        84  POPS      C212            0.9555240047       14.9301943373       -6.2598574856  MEMB      78              0.0000000000
     10382        84  POPS      H12R            1.3547841634       15.9599053645       -6.1445453773  MEMB      78              0.0000000000
     10383        84  POPS      H12S            1.7573498635       14.3226341498       -6.7358481381  MEMB      78              0.0000000000
     10384        84  POPS      C213            0.6548188593       14.3283778875       -4.8820891928  MEMB      78              0.0000000000
     10385        84  POPS      H13R            0.1428393031       13.3518877101       -5.0301769382  MEMB      78              0.0000000000
     10386        84  POPS      H13S           -0.0417022212       15.0030436788       -4.3350889766  MEMB      78              0.0000000000
     10387        84  POPS      C214            1.9176394706       14.1169231119       -4.0339990081  MEMB      78              0.0000000000
     10388        84  POPS      H14R            2.4208600083       15.1038180591       -3.9123224397  MEMB      78              0.0000000000
     10389        84  POPS      H14S            2.6190977594       13.4354407225       -4.5644803708  MEMB      78              0.0000000000
     10390        84  POPS      C215            1.6150923931       13.5498981009       -2.6383443164  MEMB      78              0.0000000000
     10391        84  POPS      H15R            0.8377978034       14.1891105239       -2.1660106703  MEMB      78              0.0000000000
     10392        84  POPS      H15S            2.5366174480       13.6204622026       -2.0180073842  MEMB      78              0.0000000000
     10393        84  POPS      C216            1.1257174054       12.0925938360       -2.6518385115  MEMB      78              0.0000000000
     10394        84  POPS      H16R            1.9438094435       11.4431421619       -3.0340894651  MEMB      78              0.0000000000
     10395        84  POPS      H16S            0.2661771233       11.9953891440       -3.3516029185  MEMB      78              0.0000000000
     10396        84  POPS      C217            0.6738326604       11.5769335550       -1.2753542841  MEMB      78              0.0000000000
     10397        84  POPS      H17R            0.2876065299       10.5392603564       -1.4023185965  MEMB      78              0.0000000000
     10398        84  POPS      H17S           -0.1769489232       12.2037723645       -0.9235883501  MEMB      78              0.0000000000
     10399        84  POPS      C218            1.7747219446       11.5671384427       -0.2110368794  MEMB      78              0.0000000000
     10400        84  POPS      H18R            2.1274261824       12.5999516870       -0.0076722624  MEMB      78              0.0000000000
     10401        84  POPS      H18S            2.6439798785       10.9676518251       -0.5559950936  MEMB      78              0.0000000000
     10402        84  POPS      H18T            1.3991838828       11.1328989182        0.7400569301  MEMB      78              0.0000000000
     10403        84  POPS      C33             5.8542984977       17.9991777946      -13.6581436260  MEMB      78              0.0000000000
     10404        84  POPS      H3X             6.6672182911       18.6026614787      -14.1241385163  MEMB      78              0.0000000000
     10405        84  POPS      H3Y             6.3563474378       17.2508326390      -13.0079883496  MEMB      78              0.0000000000
     10406        84  POPS      C34             5.0120068493       18.9776835193      -12.8225377999  MEMB      78              0.0000000000
     10407        84  POPS      H4X             4.3558559476       19.5669382125      -13.4998225807  MEMB      78              0.0000000000
     10408        84  POPS      H4Y             5.6921356290       19.6987999277      -12.3128397844  MEMB      78              0.0000000000
     10409        84  POPS      C35             4.1587321920       18.3224151773      -11.7274635588  MEMB      78              0.0000000000
     10410        84  POPS      H5X             3.4946410135       17.5392769203      -12.1561228307  MEMB      78              0.0000000000
     10411        84  POPS      H5Y             3.5037971024       19.1142641812      -11.2991588611  MEMB      78              0.0000000000
     10412        84  POPS      C36             5.0209652716       17.7238705520      -10.6059011584  MEMB      78              0.0000000000
     10413        84  POPS      H6X             5.8782483557       18.4059298716      -10.4031255526  MEMB      78              0.0000000000
     10414        84  POPS      H6Y             5.4371505706       16.7497445674      -10.9511618129  MEMB      78              0.0000000000
     10415        84  POPS      C37             4.2759677572       17.5125714804       -9.2809386212  MEMB      78              0.0000000000
     10416        84  POPS      H7X             4.9834169600       17.0183673914       -8.5767469946  MEMB      78              0.0000000000
     10417        84  POPS      H7Y             3.4191211545       16.8185631008       -9.4290362854  MEMB      78              0.0000000000
     10418        84  POPS      C38             3.7840368840       18.8201622489       -8.6378581255  MEMB      78              0.0000000000
     10419        84  POPS      H8X             2.8805611325       19.1772291906       -9.1791060711  MEMB      78              0.0000000000
     10420        84  POPS      H8Y             4.5619159306       19.6070908165       -8.7379508171  MEMB      78              0.0000000000
     10421        84  POPS      C39             3.4467605007       18.6339420647       -7.1551377635  MEMB      78              0.0000000000
     10422        84  POPS      H9X             4.3700486739       18.3751331809       -6.5914405966  MEMB      78              0.0000000000
     10423        84  POPS      H9Y             2.7544700399       17.7656899867       -7.0819006783  MEMB      78              0.0000000000
     10424        84  POPS      C310            2.7890082285       19.8711849314       -6.5259422474  MEMB      78              0.0000000000
     10425        84  POPS      H10X            1.8491986478       20.0880137751       -7.0849972884  MEMB      78              0.0000000000
     10426        84  POPS      H10Y            3.4603934916       20.7518854498       -6.6410242801  MEMB      78              0.0000000000
     10427        84  POPS      C311            2.4374385111       19.6908906868       -5.0387214577  MEMB      78              0.0000000000
     10428        84  POPS      H11X            1.8033011862       20.5461968285       -4.7221527517  MEMB      78              0.0000000000
     10429        84  POPS      H11Y            3.3648423214       19.7209684041       -4.4253205218  MEMB      78              0.0000000000
     10430        84  POPS      C312            1.6993649481       18.3722863787       -4.7624689495  MEMB      78              0.0000000000
     10431        84  POPS      H12X            2.4394314989       17.5411478194       -4.8063899838  MEMB      78              0.0000000000
     10432        84  POPS      H12Y            0.9512101325       18.1996710750       -5.5680679596  MEMB      78              0.0000000000
     10433        84  POPS      C313            0.9690162269       18.3073946495       -3.4151376551  MEMB      78              0.0000000000
     10434        84  POPS      H13X            1.6421796166       18.6454437800       -2.5989852230  MEMB      78              0.0000000000
     10435        84  POPS      H13Y            0.7139077037       17.2382675633       -3.2249492012  MEMB      78              0.0000000000
     10436        84  POPS      C314           -0.3376915773       19.1155326934       -3.4008736203  MEMB      78              0.0000000000
     10437        84  POPS      H14X           -0.8741339802       18.9492177700       -4.3623241480  MEMB      78              0.0000000000
     10438        84  POPS      H14Y           -0.0934425108       20.1986875967       -3.3350334130  MEMB      78              0.0000000000
     10439        84  POPS      C315           -1.2771976608       18.7247460227       -2.2512388478  MEMB      78              0.0000000000
     10440        84  POPS      H15X           -1.6295270767       17.6798473875       -2.4183804143  MEMB      78              0.0000000000
     10441        84  POPS      H15Y           -2.1706844071       19.3893074162       -2.2774560506  MEMB      78              0.0000000000
     10442        84  POPS      C316           -0.6272348136       18.8114045323       -0.8705258483  MEMB      78              0.0000000000
     10443        84  POPS      H16X           -0.2301976612       19.8341204423       -0.6965089499  MEMB      78              0.0000000000
     10444        84  POPS      H16Y            0.2185322022       18.0977593338       -0.7817442562  MEMB      78              0.0000000000
     10445        84  POPS      H16Z           -1.3638059089       18.5738747882       -0.0735415466  MEMB      78              0.0000000000
     10446        85  POPS      N             -10.2647644635      -10.3858317153      -19.1501020206  MEMB      79              0.0000000000
     10447        85  POPS      HN1           -10.5223760551       -9.3835893891      -19.2955309327  MEMB      79              0.0000000000
     10448        85  POPS      HN2            -9.5305415276      -10.5471205761      -18.4366111910  MEMB      79              0.0000000000
     10449        85  POPS      HN3            -9.9709924807      -10.8208066331      -20.0576415080  MEMB      79              0.0000000000
     10450        85  POPS      C12           -11.4540264910      -11.1805358446      -18.7484672415  MEMB      79              0.0000000000
     10451        85  POPS      H12A          -11.9012732728      -10.7255141508      -17.8751018128  MEMB      79              0.0000000000
     10452        85  POPS      C13           -11.0594558780      -12.6241219010      -18.3648331512  MEMB      79              0.0000000000
     10453        85  POPS      O13A           -9.8874371325      -13.0377129752      -18.6156281909  MEMB      79              0.0000000000
     10454        85  POPS      O13B          -11.9428474008      -13.3122724998      -17.7966362883  MEMB      79              0.0000000000
     10455        85  POPS      C11           -12.4351725291      -11.1778833812      -19.9659624656  MEMB      79              0.0000000000
     10456        85  POPS      H11A          -12.5622721494      -12.2293965658      -20.3103725283  MEMB      79              0.0000000000
     10457        85  POPS      H11B          -12.0206253441      -10.6345409260      -20.8445337373  MEMB      79              0.0000000000
     10458        85  POPS      P             -13.9721807782       -9.1733129768      -19.2059230431  MEMB      79              0.0000000000
     10459        85  POPS      O13           -15.1914700028       -8.7160341077      -19.9155485881  MEMB      79              0.0000000000
     10460        85  POPS      O14           -12.7053755722       -8.4239677865      -19.4137141571  MEMB      79              0.0000000000
     10461        85  POPS      O12           -13.7192427885      -10.6535678132      -19.6605093676  MEMB      79              0.0000000000
     10462        85  POPS      O11           -14.2664951063       -9.3612780755      -17.6611110954  MEMB      79              0.0000000000
     10463        85  POPS      C1            -14.8510913868      -10.5744594477      -17.1672315477  MEMB      79              0.0000000000
     10464        85  POPS      HA            -14.3763609272      -11.4901921561      -17.5990831527  MEMB      79              0.0000000000
     10465        85  POPS      HB            -15.9319972758      -10.5954585382      -17.4338461670  MEMB      79              0.0000000000
     10466        85  POPS      C2            -14.7184493000      -10.7371895537      -15.6211747455  MEMB      79              0.0000000000
     10467        85  POPS      HS            -14.9695299002       -9.7733228563      -15.1194359662  MEMB      79              0.0000000000
     10468        85  POPS      O21           -13.4014373912      -11.1835508176      -15.2658835804  MEMB      79              0.0000000000
     10469        85  POPS      C21           -12.4557267281      -10.2804680270      -15.1745269628  MEMB      79              0.0000000000
     10470        85  POPS      O22           -12.5398239371       -9.0900181497      -15.3990988670  MEMB      79              0.0000000000
     10471        85  POPS      C22           -11.1882220962      -10.9791563590      -14.6642994912  MEMB      79              0.0000000000
     10472        85  POPS      H2R           -10.8822634000      -11.7087100442      -15.4427267791  MEMB      79              0.0000000000
     10473        85  POPS      H2S           -11.4507467310      -11.5443121561      -13.7483281341  MEMB      79              0.0000000000
     10474        85  POPS      C3            -15.7254116394      -11.8219168307      -15.1133689746  MEMB      79              0.0000000000
     10475        85  POPS      HX            -15.7151182939      -12.6321755042      -15.8784433909  MEMB      79              0.0000000000
     10476        85  POPS      HY            -16.7572344690      -11.4064708359      -15.1051981453  MEMB      79              0.0000000000
     10477        85  POPS      O31           -15.3710805190      -12.4223377201      -13.8421238851  MEMB      79              0.0000000000
     10478        85  POPS      C31           -15.5231827296      -11.6406016983      -12.7826977510  MEMB      79              0.0000000000
     10479        85  POPS      O32           -15.9492533614      -10.5016871901      -12.7975601286  MEMB      79              0.0000000000
     10480        85  POPS      C32           -15.0936836561      -12.3934049378      -11.5106857080  MEMB      79              0.0000000000
     10481        85  POPS      H2X           -16.0141636612      -12.5410769364      -10.9066878279  MEMB      79              0.0000000000
     10482        85  POPS      H2Y           -14.4029548933      -11.7302415305      -10.9529228517  MEMB      79              0.0000000000
     10483        85  POPS      C23           -10.0347596957       -9.9882026507      -14.3775673021  MEMB      79              0.0000000000
     10484        85  POPS      H3R            -9.8673204599       -9.3652852984      -15.2856865064  MEMB      79              0.0000000000
     10485        85  POPS      H3S            -9.0912423800      -10.5472173620      -14.1834386587  MEMB      79              0.0000000000
     10486        85  POPS      C24           -10.3101093167       -9.0536544887      -13.1884695661  MEMB      79              0.0000000000
     10487        85  POPS      H4R           -11.4066863491       -8.9097114538      -13.0848110701  MEMB      79              0.0000000000
     10488        85  POPS      H4S            -9.8809056527       -8.0516492632      -13.4157728884  MEMB      79              0.0000000000
     10489        85  POPS      C25            -9.7028708872       -9.5475345415      -11.8673203925  MEMB      79              0.0000000000
     10490        85  POPS      H5R            -8.5987155724       -9.6229418816      -11.9833249818  MEMB      79              0.0000000000
     10491        85  POPS      H5S           -10.0731724355      -10.5744720182      -11.6604513062  MEMB      79              0.0000000000
     10492        85  POPS      C26           -10.0124978575       -8.6320819308      -10.6689004678  MEMB      79              0.0000000000
     10493        85  POPS      H6R            -9.5279764240       -7.6426586828      -10.8354101104  MEMB      79              0.0000000000
     10494        85  POPS      H6S            -9.5586640940       -9.0705964046       -9.7519994099  MEMB      79              0.0000000000
     10495        85  POPS      C27           -11.5140808225       -8.4062461050      -10.4247425409  MEMB      79              0.0000000000
     10496        85  POPS      H7R           -11.9437026680       -7.8764484651      -11.3035156728  MEMB      79              0.0000000000
     10497        85  POPS      H7S           -11.6498894830       -7.7225484906       -9.5557845152  MEMB      79              0.0000000000
     10498        85  POPS      C28           -12.3182182298       -9.7003548963      -10.2041259563  MEMB      79              0.0000000000
     10499        85  POPS      H8R           -12.1009145842      -10.4398367914      -11.0023267552  MEMB      79              0.0000000000
     10500        85  POPS      H8S           -13.3952059809       -9.4448305509      -10.3368441654  MEMB      79              0.0000000000
     10501        85  POPS      C29           -12.0498421267      -10.2939778670       -8.8433531494  MEMB      79              0.0000000000
     10502        85  POPS      H91           -11.1402159284      -10.9098242498       -8.7575832976  MEMB      79              0.0000000000
     10503        85  POPS      C210          -12.8401512907      -10.1100453875       -7.7717811355  MEMB      79              0.0000000000
     10504        85  POPS      H101          -12.5849254281      -10.5773959471       -6.8081885371  MEMB      79              0.0000000000
     10505        85  POPS      C211          -14.1005211717       -9.2856113293       -7.7894271839  MEMB      79              0.0000000000
     10506        85  POPS      H11R          -14.0044246426       -8.4472805162       -8.5145892091  MEMB      79              0.0000000000
     10507        85  POPS      H11S          -14.2786603432       -8.8116051974       -6.8012033734  MEMB      79              0.0000000000
     10508        85  POPS      C212          -15.3269790795      -10.1096189183       -8.2252275738  MEMB      79              0.0000000000
     10509        85  POPS      H12R          -15.0875566594      -10.7055694143       -9.1320919914  MEMB      79              0.0000000000
     10510        85  POPS      H12S          -16.1370244097       -9.4011570248       -8.5158320430  MEMB      79              0.0000000000
     10511        85  POPS      C213          -15.8697550852      -11.0320473825       -7.1319828029  MEMB      79              0.0000000000
     10512        85  POPS      H13R          -15.0802266065      -11.7305061116       -6.7784463135  MEMB      79              0.0000000000
     10513        85  POPS      H13S          -16.6902297193      -11.6474809942       -7.5674688551  MEMB      79              0.0000000000
     10514        85  POPS      C214          -16.4255321704      -10.2285765896       -5.9542661707  MEMB      79              0.0000000000
     10515        85  POPS      H14R          -17.0030851352       -9.3677695591       -6.3659456054  MEMB      79              0.0000000000
     10516        85  POPS      H14S          -15.6030670425       -9.8051746595       -5.3381594281  MEMB      79              0.0000000000
     10517        85  POPS      C215          -17.3772379696      -11.0457469434       -5.0866299628  MEMB      79              0.0000000000
     10518        85  POPS      H15R          -18.0947345913      -11.5951049351       -5.7368133333  MEMB      79              0.0000000000
     10519        85  POPS      H15S          -17.9673018172      -10.3211230496       -4.4814326248  MEMB      79              0.0000000000
     10520        85  POPS      C216          -16.6907982732      -12.0241516402       -4.1241168828  MEMB      79              0.0000000000
     10521        85  POPS      H16R          -15.9871377462      -12.6870161076       -4.6723697138  MEMB      79              0.0000000000
     10522        85  POPS      H16S          -17.4686126499      -12.6790399195       -3.6691452411  MEMB      79              0.0000000000
     10523        85  POPS      C217          -15.9632692621      -11.3009767594       -2.9862815060  MEMB      79              0.0000000000
     10524        85  POPS      H17R          -16.5600105310      -10.4113988033       -2.6760778270  MEMB      79              0.0000000000
     10525        85  POPS      H17S          -14.9866196987      -10.9285680419       -3.3695214747  MEMB      79              0.0000000000
     10526        85  POPS      C218          -15.7394635943      -12.1854603382       -1.7623667995  MEMB      79              0.0000000000
     10527        85  POPS      H18R          -15.2635885682      -13.1452295337       -2.0554320527  MEMB      79              0.0000000000
     10528        85  POPS      H18S          -16.7031449030      -12.4151971740       -1.2594363833  MEMB      79              0.0000000000
     10529        85  POPS      H18T          -15.0755757555      -11.6649968004       -1.0394647686  MEMB      79              0.0000000000
     10530        85  POPS      C33           -14.4178798486      -13.7655678361      -11.7558439555  MEMB      79              0.0000000000
     10531        85  POPS      H3X           -13.4106673164      -13.6236826611      -12.2085667118  MEMB      79              0.0000000000
     10532        85  POPS      H3Y           -15.0304967079      -14.3554499772      -12.4789777508  MEMB      79              0.0000000000
     10533        85  POPS      C34           -14.3024964733      -14.6265854233      -10.4873454409  MEMB      79              0.0000000000
     10534        85  POPS      H4X           -13.8719683353      -15.6103302110      -10.7857995660  MEMB      79              0.0000000000
     10535        85  POPS      H4Y           -15.3185625107      -14.8151114321      -10.0741995029  MEMB      79              0.0000000000
     10536        85  POPS      C35           -13.4024634488      -14.0685746724       -9.3759328671  MEMB      79              0.0000000000
     10537        85  POPS      H5X           -13.8978844891      -13.2001406576       -8.8886989993  MEMB      79              0.0000000000
     10538        85  POPS      H5Y           -12.4448539875      -13.7094721767       -9.8159980995  MEMB      79              0.0000000000
     10539        85  POPS      C36           -13.1023714843      -15.1739153373       -8.3481948308  MEMB      79              0.0000000000
     10540        85  POPS      H6X           -12.6194731596      -16.0202370580       -8.8864640674  MEMB      79              0.0000000000
     10541        85  POPS      H6Y           -14.0625060842      -15.5492154528       -7.9273241630  MEMB      79              0.0000000000
     10542        85  POPS      C37           -12.1821398019      -14.7549693956       -7.1958563962  MEMB      79              0.0000000000
     10543        85  POPS      H7X           -11.2135115415      -14.3856599090       -7.5989278428  MEMB      79              0.0000000000
     10544        85  POPS      H7Y           -11.9655799505      -15.6516784364       -6.5764183679  MEMB      79              0.0000000000
     10545        85  POPS      C38           -12.8089467097      -13.6853915019       -6.2993731028  MEMB      79              0.0000000000
     10546        85  POPS      H8X           -13.8613261388      -13.9585261193       -6.0596998487  MEMB      79              0.0000000000
     10547        85  POPS      H8Y           -12.8391968442      -12.7334034318       -6.8708521377  MEMB      79              0.0000000000
     10548        85  POPS      C39           -12.0413381137      -13.4679767683       -4.9901192496  MEMB      79              0.0000000000
     10549        85  POPS      H9X           -12.3157898482      -12.4549313978       -4.6176228824  MEMB      79              0.0000000000
     10550        85  POPS      H9Y           -10.9467650978      -13.4739368493       -5.1853566170  MEMB      79              0.0000000000
     10551        85  POPS      C310          -12.3973223205      -14.5033738003       -3.9091624546  MEMB      79              0.0000000000
     10552        85  POPS      H10X          -12.1354132879      -15.5229903508       -4.2698473315  MEMB      79              0.0000000000
     10553        85  POPS      H10Y          -13.4985970660      -14.4801113256       -3.7454736469  MEMB      79              0.0000000000
     10554        85  POPS      C311          -11.6888260099      -14.2547784556       -2.5664314521  MEMB      79              0.0000000000
     10555        85  POPS      H11X          -10.5930913299      -14.3315887468       -2.7393678500  MEMB      79              0.0000000000
     10556        85  POPS      H11Y          -11.9679263599      -15.0596583057       -1.8504838754  MEMB      79              0.0000000000
     10557        85  POPS      C312          -12.0395299720      -12.8888087505       -1.9489980848  MEMB      79              0.0000000000
     10558        85  POPS      H12X          -13.1400423257      -12.8138650617       -1.8454990803  MEMB      79              0.0000000000
     10559        85  POPS      H12Y          -11.7085071205      -12.0843260933       -2.6427368709  MEMB      79              0.0000000000
     10560        85  POPS      C313          -11.3915413570      -12.5985096880       -0.5857688772  MEMB      79              0.0000000000
     10561        85  POPS      H13X          -11.8620874181      -13.2257286683        0.2016163790  MEMB      79              0.0000000000
     10562        85  POPS      H13Y          -11.5954696340      -11.5358691188       -0.3323373449  MEMB      79              0.0000000000
     10563        85  POPS      C314           -9.8841958684      -12.8690795073       -0.6151379710  MEMB      79              0.0000000000
     10564        85  POPS      H14X           -9.5385749136      -12.7684855242       -1.6689410263  MEMB      79              0.0000000000
     10565        85  POPS      H14Y           -9.7252654018      -13.9250441035       -0.2986940577  MEMB      79              0.0000000000
     10566        85  POPS      C315           -8.9823299584      -11.9441484421        0.2125557510  MEMB      79              0.0000000000
     10567        85  POPS      H15X           -7.9304586659      -12.2939803873        0.0896576543  MEMB      79              0.0000000000
     10568        85  POPS      H15Y           -9.2275323577      -12.0668432798        1.2870132144  MEMB      79              0.0000000000
     10569        85  POPS      C316           -9.0379300480      -10.4671052948       -0.1926772067  MEMB      79              0.0000000000
     10570        85  POPS      H16X           -8.7571703785      -10.3537169464       -1.2622222160  MEMB      79              0.0000000000
     10571        85  POPS      H16Y           -8.3280985774       -9.8727971342        0.4212989150  MEMB      79              0.0000000000
     10572        85  POPS      H16Z          -10.0545580165      -10.0464031875       -0.0504624822  MEMB      79              0.0000000000
     10573        86  POPC      N              -7.0847098069      -15.8174539760      -20.0709528047  MEMB      80              0.0000000000
     10574        86  POPC      C12            -5.9852577775      -14.9607356411      -20.6765210880  MEMB      80              0.0000000000
     10575        86  POPC      H12A           -5.9803192434      -13.9949403588      -20.1714002930  MEMB      80              0.0000000000
     10576        86  POPC      H12B           -6.2069574272      -14.7882344427      -21.7205528352  MEMB      80              0.0000000000
     10577        86  POPC      C13            -6.8503061932      -15.9687208306      -18.6049356768  MEMB      80              0.0000000000
     10578        86  POPC      H13A           -7.7428792869      -16.2773893107      -18.0699044718  MEMB      80              0.0000000000
     10579        86  POPC      H13B           -6.0463392158      -16.6824594197      -18.4348003605  MEMB      80              0.0000000000
     10580        86  POPC      H13C           -6.5100838202      -15.0385578839      -18.1566603831  MEMB      80              0.0000000000
     10581        86  POPC      C14            -8.4300136419      -15.1838179635      -20.1776250077  MEMB      80              0.0000000000
     10582        86  POPC      H14A           -8.7713392175      -15.2106578021      -21.1971658194  MEMB      80              0.0000000000
     10583        86  POPC      H14B           -9.1594888155      -15.7052252672      -19.5408954384  MEMB      80              0.0000000000
     10584        86  POPC      H14C           -8.4479476982      -14.1717555391      -19.7707502171  MEMB      80              0.0000000000
     10585        86  POPC      C15            -7.1269460183      -17.1609001452      -20.7405651227  MEMB      80              0.0000000000
     10586        86  POPC      H15A           -6.1899740236      -17.6964449455      -20.6138718011  MEMB      80              0.0000000000
     10587        86  POPC      H15B           -7.2936630243      -17.0414692107      -21.8070859009  MEMB      80              0.0000000000
     10588        86  POPC      H15C           -7.9380440462      -17.7776630195      -20.3776866614  MEMB      80              0.0000000000
     10589        86  POPC      C11            -4.5398006957      -15.5000473555      -20.5470881077  MEMB      80              0.0000000000
     10590        86  POPC      H11A           -3.8887224478      -14.9608542422      -21.2743201769  MEMB      80              0.0000000000
     10591        86  POPC      H11B           -4.4870376221      -16.5721951151      -20.8398133993  MEMB      80              0.0000000000
     10592        86  POPC      P              -3.3894113930      -16.3400830104      -18.2886506423  MEMB      80              0.0000000000
     10593        86  POPC      O13            -2.5284228880      -17.2312444120      -19.0794234016  MEMB      80              0.0000000000
     10594        86  POPC      O14            -4.4592995665      -16.9337709809      -17.4575005921  MEMB      80              0.0000000000
     10595        86  POPC      O12            -4.0721586453      -15.2592273339      -19.2251013198  MEMB      80              0.0000000000
     10596        86  POPC      O11            -2.5728620863      -15.3583418473      -17.3829399841  MEMB      80              0.0000000000
     10597        86  POPC      C1             -3.3031879961      -14.2969911597      -16.7591163453  MEMB      80              0.0000000000
     10598        86  POPC      HA             -4.4166486286      -14.4301830714      -16.7953444274  MEMB      80              0.0000000000
     10599        86  POPC      HB             -3.0550524852      -13.3626202468      -17.2966368398  MEMB      80              0.0000000000
     10600        86  POPC      C2             -2.9451697664      -14.1936428936      -15.2627414571  MEMB      80              0.0000000000
     10601        86  POPC      HS             -2.0118717158      -13.5862159428      -15.2133878994  MEMB      80              0.0000000000
     10602        86  POPC      O21            -2.6954285911      -15.5187689904      -14.7640511240  MEMB      80              0.0000000000
     10603        86  POPC      C21            -2.0868966664      -15.5525259616      -13.6113213797  MEMB      80              0.0000000000
     10604        86  POPC      O22            -1.7630589177      -14.5789963984      -12.9499600736  MEMB      80              0.0000000000
     10605        86  POPC      C22            -1.8219599624      -17.0080508147      -13.2331858090  MEMB      80              0.0000000000
     10606        86  POPC      H2R            -1.2786029232      -17.0204388147      -12.2718053838  MEMB      80              0.0000000000
     10607        86  POPC      H2S            -1.1519029815      -17.4325270996      -14.0104483200  MEMB      80              0.0000000000
     10608        86  POPC      C3             -4.0882507829      -13.4876873998      -14.4764791600  MEMB      80              0.0000000000
     10609        86  POPC      HX             -4.2223003019      -12.4857908752      -14.9537647468  MEMB      80              0.0000000000
     10610        86  POPC      HY             -3.7764346432      -13.3285176478      -13.4210980828  MEMB      80              0.0000000000
     10611        86  POPC      O31            -5.3024299790      -14.2776363795      -14.5336546003  MEMB      80              0.0000000000
     10612        86  POPC      C31            -6.3840875351      -13.6153338020      -14.1274626323  MEMB      80              0.0000000000
     10613        86  POPC      O32            -6.3842469470      -12.4438193658      -13.7861390342  MEMB      80              0.0000000000
     10614        86  POPC      C32            -7.6084394454      -14.5332142239      -14.1750107164  MEMB      80              0.0000000000
     10615        86  POPC      H2X            -7.3402022552      -15.5094778517      -13.7283076826  MEMB      80              0.0000000000
     10616        86  POPC      H2Y            -7.8340942428      -14.6997006255      -15.2510143102  MEMB      80              0.0000000000
     10617        86  POPC      C23            -3.1043048356      -17.8698590237      -13.1935793798  MEMB      80              0.0000000000
     10618        86  POPC      H3R            -2.7941831128      -18.9335544688      -13.0861104945  MEMB      80              0.0000000000
     10619        86  POPC      H3S            -3.6352889559      -17.7937641693      -14.1716354047  MEMB      80              0.0000000000
     10620        86  POPC      C24            -4.0809723271      -17.5291119937      -12.0546535955  MEMB      80              0.0000000000
     10621        86  POPC      H4R            -4.9152880277      -18.2661164180      -12.1162133227  MEMB      80              0.0000000000
     10622        86  POPC      H4S            -4.5240605972      -16.5296973205      -12.2503342366  MEMB      80              0.0000000000
     10623        86  POPC      C25            -3.4794031165      -17.6064987734      -10.6373213742  MEMB      80              0.0000000000
     10624        86  POPC      H5R            -2.6470910909      -18.3433345602      -10.6426451909  MEMB      80              0.0000000000
     10625        86  POPC      H5S            -4.2587968389      -17.9926013880       -9.9415325008  MEMB      80              0.0000000000
     10626        86  POPC      C26            -2.9852666139      -16.2638088122      -10.0652855372  MEMB      80              0.0000000000
     10627        86  POPC      H6R            -2.2642138704      -15.8012809399      -10.7708073195  MEMB      80              0.0000000000
     10628        86  POPC      H6S            -2.4301848994      -16.4531935745       -9.1195172471  MEMB      80              0.0000000000
     10629        86  POPC      C27            -4.1154525089      -15.2613029207       -9.7812682073  MEMB      80              0.0000000000
     10630        86  POPC      H7R            -4.6956167383      -15.5944132429       -8.8906472439  MEMB      80              0.0000000000
     10631        86  POPC      H7S            -4.8201848894      -15.2495452421      -10.6412626167  MEMB      80              0.0000000000
     10632        86  POPC      C28            -3.6137024522      -13.8149638647       -9.6037877040  MEMB      80              0.0000000000
     10633        86  POPC      H8R            -4.4863729473      -13.1366959885       -9.7442412214  MEMB      80              0.0000000000
     10634        86  POPC      H8S            -2.9009127576      -13.5769815178      -10.4264058482  MEMB      80              0.0000000000
     10635        86  POPC      C29            -2.9768339290      -13.5792388542       -8.2594992294  MEMB      80              0.0000000000
     10636        86  POPC      H91            -1.8764683811      -13.6321270650       -8.2334706195  MEMB      80              0.0000000000
     10637        86  POPC      C210           -3.6459904732      -13.3136596849       -7.1236904618  MEMB      80              0.0000000000
     10638        86  POPC      H101           -3.0690020314      -13.1575005986       -6.2018270193  MEMB      80              0.0000000000
     10639        86  POPC      C211           -5.1438772778      -13.1968123708       -6.9522127835  MEMB      80              0.0000000000
     10640        86  POPC      H11R           -5.5051460825      -14.0321514436       -6.3134085429  MEMB      80              0.0000000000
     10641        86  POPC      H11S           -5.6916805997      -13.2691885949       -7.9171346812  MEMB      80              0.0000000000
     10642        86  POPC      C212           -5.5077662487      -11.8660977321       -6.2664589311  MEMB      80              0.0000000000
     10643        86  POPC      H12R           -5.0896740768      -11.0230879531       -6.8629482166  MEMB      80              0.0000000000
     10644        86  POPC      H12S           -5.0204025594      -11.8451186360       -5.2684347452  MEMB      80              0.0000000000
     10645        86  POPC      C213           -7.0151970496      -11.6042894778       -6.0660284515  MEMB      80              0.0000000000
     10646        86  POPC      H13R           -7.4866300411      -11.5162777045       -7.0709621528  MEMB      80              0.0000000000
     10647        86  POPC      H13S           -7.1385667399      -10.6264446588       -5.5468324431  MEMB      80              0.0000000000
     10648        86  POPC      C214           -7.7636965312      -12.6835165047       -5.2675176419  MEMB      80              0.0000000000
     10649        86  POPC      H14R           -7.6273806420      -13.6553109885       -5.7926420288  MEMB      80              0.0000000000
     10650        86  POPC      H14S           -8.8543590364      -12.4636435418       -5.2772484334  MEMB      80              0.0000000000
     10651        86  POPC      C215           -7.3183958773      -12.8502290786       -3.8011542710  MEMB      80              0.0000000000
     10652        86  POPC      H15R           -7.9706516061      -12.2410922833       -3.1398634560  MEMB      80              0.0000000000
     10653        86  POPC      H15S           -6.2814366577      -12.4761483224       -3.6711513895  MEMB      80              0.0000000000
     10654        86  POPC      C216           -7.3534174289      -14.3333768267       -3.3999411076  MEMB      80              0.0000000000
     10655        86  POPC      H16R           -6.5913708992      -14.8493277981       -4.0201066996  MEMB      80              0.0000000000
     10656        86  POPC      H16S           -8.3463304937      -14.7538596285       -3.6792740910  MEMB      80              0.0000000000
     10657        86  POPC      C217           -7.0999030697      -14.6592498881       -1.9166239480  MEMB      80              0.0000000000
     10658        86  POPC      H17R           -7.0964396111      -15.7687408625       -1.8120418963  MEMB      80              0.0000000000
     10659        86  POPC      H17S           -7.9604970781      -14.3008293794       -1.3287406980  MEMB      80              0.0000000000
     10660        86  POPC      C218           -5.8248408720      -14.0936623685       -1.2844288459  MEMB      80              0.0000000000
     10661        86  POPC      H18R           -4.9396599428      -14.6433251469       -1.6586256860  MEMB      80              0.0000000000
     10662        86  POPC      H18S           -5.8454205428      -14.2151491275       -0.1821009286  MEMB      80              0.0000000000
     10663        86  POPC      H18T           -5.7103595123      -13.0128968667       -1.5098825159  MEMB      80              0.0000000000
     10664        86  POPC      C33            -8.8656566656      -13.9161528260      -13.5025614176  MEMB      80              0.0000000000
     10665        86  POPC      H3X            -9.7451301585      -14.5528107519      -13.7542239407  MEMB      80              0.0000000000
     10666        86  POPC      H3Y            -9.0660995108      -12.9111515436      -13.9396271465  MEMB      80              0.0000000000
     10667        86  POPC      C34            -8.7955905331      -13.7955157771      -11.9715663125  MEMB      80              0.0000000000
     10668        86  POPC      H4X            -9.7517672702      -13.3517771530      -11.6077564786  MEMB      80              0.0000000000
     10669        86  POPC      H4Y            -7.9759676011      -13.0947515471      -11.6926233801  MEMB      80              0.0000000000
     10670        86  POPC      C35            -8.5866257050      -15.1394817432      -11.2672630344  MEMB      80              0.0000000000
     10671        86  POPC      H5X            -7.6226332466      -15.5822718279      -11.6037296409  MEMB      80              0.0000000000
     10672        86  POPC      H5Y            -9.4019547952      -15.8399627083      -11.5587820538  MEMB      80              0.0000000000
     10673        86  POPC      C36            -8.5420127128      -15.0361800995       -9.7389742626  MEMB      80              0.0000000000
     10674        86  POPC      H6X            -9.5587802725      -14.8358917960       -9.3358204733  MEMB      80              0.0000000000
     10675        86  POPC      H6Y            -7.8811416124      -14.1873104107       -9.4484291804  MEMB      80              0.0000000000
     10676        86  POPC      C37            -7.9716817886      -16.3222495700       -9.1326172427  MEMB      80              0.0000000000
     10677        86  POPC      H7X            -6.9447530694      -16.4690244942       -9.5407055691  MEMB      80              0.0000000000
     10678        86  POPC      H7Y            -8.5784118593      -17.1935851481       -9.4585131180  MEMB      80              0.0000000000
     10679        86  POPC      C38            -7.8846542220      -16.2968296429       -7.6031726501  MEMB      80              0.0000000000
     10680        86  POPC      H8X            -8.8957854822      -16.2036899716       -7.1505605355  MEMB      80              0.0000000000
     10681        86  POPC      H8Y            -7.2927020628      -15.4006345876       -7.3062766406  MEMB      80              0.0000000000
     10682        86  POPC      C39            -7.1804033066      -17.5499454607       -7.0695956804  MEMB      80              0.0000000000
     10683        86  POPC      H9X            -6.2690101769      -17.7052760134       -7.6939320729  MEMB      80              0.0000000000
     10684        86  POPC      H9Y            -7.8291411697      -18.4433945853       -7.1943907835  MEMB      80              0.0000000000
     10685        86  POPC      C310           -6.7290136701      -17.4120277378       -5.6110304218  MEMB      80              0.0000000000
     10686        86  POPC      H10X           -7.5871232783      -17.5562561413       -4.9202508829  MEMB      80              0.0000000000
     10687        86  POPC      H10Y           -6.3509320426      -16.3761560992       -5.4725306394  MEMB      80              0.0000000000
     10688        86  POPC      C311           -5.5917344727      -18.3850622878       -5.2802275783  MEMB      80              0.0000000000
     10689        86  POPC      H11X           -4.7678599857      -18.2343129051       -6.0150809208  MEMB      80              0.0000000000
     10690        86  POPC      H11Y           -5.9652000498      -19.4271710559       -5.4061248442  MEMB      80              0.0000000000
     10691        86  POPC      C312           -5.0121445958      -18.2403699756       -3.8646880229  MEMB      80              0.0000000000
     10692        86  POPC      H12X           -4.1921888737      -18.9846252187       -3.7685589067  MEMB      80              0.0000000000
     10693        86  POPC      H12Y           -5.8064376449      -18.5046955868       -3.1338313901  MEMB      80              0.0000000000
     10694        86  POPC      C313           -4.4416132354      -16.8614936166       -3.4744535330  MEMB      80              0.0000000000
     10695        86  POPC      H13X           -3.8128210921      -16.9984984248       -2.5657258165  MEMB      80              0.0000000000
     10696        86  POPC      H13Y           -5.2780848971      -16.1998845199       -3.1884473389  MEMB      80              0.0000000000
     10697        86  POPC      C314           -3.6119545280      -16.1632368589       -4.5621087457  MEMB      80              0.0000000000
     10698        86  POPC      H14X           -4.2763876396      -15.7415266990       -5.3452490190  MEMB      80              0.0000000000
     10699        86  POPC      H14Y           -2.9885379303      -16.9365649693       -5.0625408544  MEMB      80              0.0000000000
     10700        86  POPC      C315           -2.6736366707      -15.0554087464       -4.0431511025  MEMB      80              0.0000000000
     10701        86  POPC      H15X           -1.9705213130      -14.8335240227       -4.8774221778  MEMB      80              0.0000000000
     10702        86  POPC      H15Y           -2.0681212193      -15.4368457801       -3.1918735724  MEMB      80              0.0000000000
     10703        86  POPC      C316           -3.3322038146      -13.7433765175       -3.6130709571  MEMB      80              0.0000000000
     10704        86  POPC      H16X           -2.7800969706      -12.8704727487       -4.0212828640  MEMB      80              0.0000000000
     10705        86  POPC      H16Y           -3.3230591299      -13.6459931969       -2.5078029447  MEMB      80              0.0000000000
     10706        86  POPC      H16Z           -4.3805052054      -13.6961204238       -3.9756086918  MEMB      80              0.0000000000
     10707        87  POPC      N             -14.7915565683        7.9866413136      -20.7427632229  MEMB      81              0.0000000000
     10708        87  POPC      C12           -14.5032508802        6.4967600372      -20.5998688556  MEMB      81              0.0000000000
     10709        87  POPC      H12A          -13.7809582268        6.2219993623      -21.3651371799  MEMB      81              0.0000000000
     10710        87  POPC      H12B          -15.4029173573        5.9377796801      -20.8038346217  MEMB      81              0.0000000000
     10711        87  POPC      C13           -15.4414748765        8.2597851388      -22.0561488155  MEMB      81              0.0000000000
     10712        87  POPC      H13A          -14.8341193718        7.8867352325      -22.8761766488  MEMB      81              0.0000000000
     10713        87  POPC      H13B          -16.4017184632        7.7680089945      -22.1110294925  MEMB      81              0.0000000000
     10714        87  POPC      H13C          -15.5837630180        9.3291360350      -22.1959372415  MEMB      81              0.0000000000
     10715        87  POPC      C14           -15.6518804280        8.4595462045      -19.6146004997  MEMB      81              0.0000000000
     10716        87  POPC      H14A          -16.6453378685        8.0489549258      -19.6577415967  MEMB      81              0.0000000000
     10717        87  POPC      H14B          -15.1981415931        8.1153518022      -18.6825734394  MEMB      81              0.0000000000
     10718        87  POPC      H14C          -15.6757487180        9.5444414136      -19.5759686575  MEMB      81              0.0000000000
     10719        87  POPC      C15           -13.5041648775        8.7643416220      -20.6709916795  MEMB      81              0.0000000000
     10720        87  POPC      H15A          -13.6396567787        9.8141584590      -20.8948366290  MEMB      81              0.0000000000
     10721        87  POPC      H15B          -12.7494084310        8.3796553863      -21.3491199259  MEMB      81              0.0000000000
     10722        87  POPC      H15C          -13.0835755856        8.6830110210      -19.6655758888  MEMB      81              0.0000000000
     10723        87  POPC      C11           -13.9379058579        5.9793540978      -19.2560247104  MEMB      81              0.0000000000
     10724        87  POPC      H11A          -13.9426370315        4.8655125929      -19.2701361337  MEMB      81              0.0000000000
     10725        87  POPC      H11B          -14.5993740716        6.2818599048      -18.4114510390  MEMB      81              0.0000000000
     10726        87  POPC      P             -12.0578967327        7.1573803707      -17.8287999331  MEMB      81              0.0000000000
     10727        87  POPC      O13           -10.7633393495        7.7663191823      -18.2284547048  MEMB      81              0.0000000000
     10728        87  POPC      O14           -12.0969622175        6.2779367488      -16.6465775823  MEMB      81              0.0000000000
     10729        87  POPC      O12           -12.5972800392        6.4079112637      -19.1002874916  MEMB      81              0.0000000000
     10730        87  POPC      O11           -13.1495966953        8.2898171789      -17.6840088815  MEMB      81              0.0000000000
     10731        87  POPC      C1            -13.8310275908        8.4437076077      -16.4393949672  MEMB      81              0.0000000000
     10732        87  POPC      HA            -14.1912022627        7.4700366656      -16.0280703161  MEMB      81              0.0000000000
     10733        87  POPC      HB            -14.7434942987        9.0580729395      -16.6007757346  MEMB      81              0.0000000000
     10734        87  POPC      C2            -12.9350081148        9.1612623223      -15.4002779093  MEMB      81              0.0000000000
     10735        87  POPC      HS            -11.9300369751        9.3188599009      -15.8586521563  MEMB      81              0.0000000000
     10736        87  POPC      O21           -12.8860692709        8.3381566978      -14.2161101636  MEMB      81              0.0000000000
     10737        87  POPC      C21           -11.7153222144        7.7789286240      -13.9296115196  MEMB      81              0.0000000000
     10738        87  POPC      O22           -10.6277768610        8.1504663948      -14.3384251619  MEMB      81              0.0000000000
     10739        87  POPC      C22           -11.9559422590        6.5417777679      -13.0634364370  MEMB      81              0.0000000000
     10740        87  POPC      H2R           -11.7907733008        5.6723474948      -13.7383147377  MEMB      81              0.0000000000
     10741        87  POPC      H2S           -13.0100508003        6.5212187414      -12.7244342952  MEMB      81              0.0000000000
     10742        87  POPC      C3            -13.5397843133       10.5594704640      -15.1102747753  MEMB      81              0.0000000000
     10743        87  POPC      HX            -13.6563800407       11.0756949491      -16.0915159412  MEMB      81              0.0000000000
     10744        87  POPC      HY            -12.8424536994       11.1854904271      -14.5130605260  MEMB      81              0.0000000000
     10745        87  POPC      O31           -14.8390620635       10.4069550943      -14.5055995964  MEMB      81              0.0000000000
     10746        87  POPC      C31           -14.7583479048       10.3085388502      -13.1722735478  MEMB      81              0.0000000000
     10747        87  POPC      O32           -13.7829170286       10.6073521149      -12.5065035642  MEMB      81              0.0000000000
     10748        87  POPC      C32           -16.1094684411        9.8898713762      -12.6154114001  MEMB      81              0.0000000000
     10749        87  POPC      H2X           -16.6267537700        9.2336816744      -13.3444100174  MEMB      81              0.0000000000
     10750        87  POPC      H2Y           -16.6955821175       10.8273598900      -12.5095489979  MEMB      81              0.0000000000
     10751        87  POPC      C23           -10.9986330669        6.4446850121      -11.8566188529  MEMB      81              0.0000000000
     10752        87  POPC      H3R            -9.9404296195        6.5510498662      -12.1866598766  MEMB      81              0.0000000000
     10753        87  POPC      H3S           -11.1169930891        5.4200989645      -11.4331311720  MEMB      81              0.0000000000
     10754        87  POPC      C24           -11.3011060564        7.4498784109      -10.7366458594  MEMB      81              0.0000000000
     10755        87  POPC      H4R           -12.4018191864        7.5832715261      -10.6363557305  MEMB      81              0.0000000000
     10756        87  POPC      H4S           -10.8647194639        8.4394156285      -10.9998606624  MEMB      81              0.0000000000
     10757        87  POPC      C25           -10.7446170472        6.9645520685       -9.3899394134  MEMB      81              0.0000000000
     10758        87  POPC      H5R            -9.7019972283        6.6117339322       -9.5487774499  MEMB      81              0.0000000000
     10759        87  POPC      H5S           -11.3547654462        6.0965966895       -9.0533479616  MEMB      81              0.0000000000
     10760        87  POPC      C26           -10.7188585364        8.0236722803       -8.2819243386  MEMB      81              0.0000000000
     10761        87  POPC      H6R            -9.8923014812        8.7307366343       -8.4968844574  MEMB      81              0.0000000000
     10762        87  POPC      H6S           -10.4784204310        7.5284203885       -7.3138340827  MEMB      81              0.0000000000
     10763        87  POPC      C27           -12.0240250808        8.8178567427       -8.1396533874  MEMB      81              0.0000000000
     10764        87  POPC      H7R           -12.8734823542        8.1033157560       -8.0476425129  MEMB      81              0.0000000000
     10765        87  POPC      H7S           -12.1828446748        9.4214157521       -9.0629716315  MEMB      81              0.0000000000
     10766        87  POPC      C28           -12.0057803350        9.7427624205       -6.9095582644  MEMB      81              0.0000000000
     10767        87  POPC      H8R           -11.1156356380       10.4078904693       -6.9679424068  MEMB      81              0.0000000000
     10768        87  POPC      H8S           -11.8799173765        9.1257600187       -5.9983268906  MEMB      81              0.0000000000
     10769        87  POPC      C29           -13.2566126977       10.5749898998       -6.8560418069  MEMB      81              0.0000000000
     10770        87  POPC      H91           -13.3102482508       11.3398276783       -7.6391547265  MEMB      81              0.0000000000
     10771        87  POPC      C210          -14.2958306594       10.4663838468       -6.0135148521  MEMB      81              0.0000000000
     10772        87  POPC      H101          -15.1478838650       11.1542983411       -6.1390207452  MEMB      81              0.0000000000
     10773        87  POPC      C211          -14.4631037841        9.4684350484       -4.9021185361  MEMB      81              0.0000000000
     10774        87  POPC      H11R          -14.8914811295        9.9664043630       -4.0038524144  MEMB      81              0.0000000000
     10775        87  POPC      H11S          -13.4919345075        9.0283368783       -4.5888905878  MEMB      81              0.0000000000
     10776        87  POPC      C212          -15.4018484185        8.3295100138       -5.3374964322  MEMB      81              0.0000000000
     10777        87  POPC      H12R          -15.4633655255        7.5959653513       -4.5076427968  MEMB      81              0.0000000000
     10778        87  POPC      H12S          -14.9614427423        7.8022477461       -6.2124232125  MEMB      81              0.0000000000
     10779        87  POPC      C213          -16.8137315670        8.8231430295       -5.6888936502  MEMB      81              0.0000000000
     10780        87  POPC      H13R          -16.7341614899        9.4578510676       -6.5995349126  MEMB      81              0.0000000000
     10781        87  POPC      H13S          -17.1853952028        9.4707464544       -4.8651706847  MEMB      81              0.0000000000
     10782        87  POPC      C214          -17.8402204887        7.7146585028       -5.9904760459  MEMB      81              0.0000000000
     10783        87  POPC      H14R          -17.4756778928        7.1226916957       -6.8592543817  MEMB      81              0.0000000000
     10784        87  POPC      H14S          -18.8014943325        8.1870526662       -6.2950931169  MEMB      81              0.0000000000
     10785        87  POPC      C215          -18.1310736825        6.7624382954       -4.8211686623  MEMB      81              0.0000000000
     10786        87  POPC      H15R          -17.1816709971        6.2846968695       -4.4944749036  MEMB      81              0.0000000000
     10787        87  POPC      H15S          -18.8049125414        5.9555684118       -5.1816255895  MEMB      81              0.0000000000
     10788        87  POPC      C216          -18.8028042849        7.4467557480       -3.6246704304  MEMB      81              0.0000000000
     10789        87  POPC      H16R          -19.8319515193        7.7679299476       -3.8966642624  MEMB      81              0.0000000000
     10790        87  POPC      H16S          -18.2296461337        8.3639043252       -3.3658082844  MEMB      81              0.0000000000
     10791        87  POPC      C217          -18.8455784415        6.5622361024       -2.3748708158  MEMB      81              0.0000000000
     10792        87  POPC      H17R          -17.8463698700        6.0873387723       -2.2529912990  MEMB      81              0.0000000000
     10793        87  POPC      H17S          -19.5843240476        5.7416951697       -2.5110694949  MEMB      81              0.0000000000
     10794        87  POPC      C218          -19.1597874718        7.3635337862       -1.1102502631  MEMB      81              0.0000000000
     10795        87  POPC      H18R          -18.5497080400        8.2922629966       -1.0822060481  MEMB      81              0.0000000000
     10796        87  POPC      H18S          -18.9108482529        6.7770241196       -0.2036535875  MEMB      81              0.0000000000
     10797        87  POPC      H18T          -20.2323948785        7.6488035930       -1.0778866894  MEMB      81              0.0000000000
     10798        87  POPC      C33           -16.0258337794        9.1986213743      -11.2348055981  MEMB      81              0.0000000000
     10799        87  POPC      H3X           -17.0417343899        9.2447829242      -10.7824680111  MEMB      81              0.0000000000
     10800        87  POPC      H3Y           -15.3388954144        9.7338711978      -10.5422162646  MEMB      81              0.0000000000
     10801        87  POPC      C34           -15.6609709852        7.7122004190      -11.3217370878  MEMB      81              0.0000000000
     10802        87  POPC      H4X           -14.5989651589        7.6086519921      -11.6353419005  MEMB      81              0.0000000000
     10803        87  POPC      H4Y           -16.2968594234        7.2316421013      -12.0997432235  MEMB      81              0.0000000000
     10804        87  POPC      C35           -15.8911998005        6.9706361481       -9.9945487101  MEMB      81              0.0000000000
     10805        87  POPC      H5X           -16.9442596555        7.1189460402       -9.6664254149  MEMB      81              0.0000000000
     10806        87  POPC      H5Y           -15.2350665456        7.4180224832       -9.2144809821  MEMB      81              0.0000000000
     10807        87  POPC      C36           -15.6156697296        5.4633440773      -10.1119276783  MEMB      81              0.0000000000
     10808        87  POPC      H6X           -14.5540916028        5.3227994829      -10.4197206744  MEMB      81              0.0000000000
     10809        87  POPC      H6Y           -16.2586760972        5.0318927793      -10.9111444819  MEMB      81              0.0000000000
     10810        87  POPC      C37           -15.8477118260        4.6808060408       -8.8087491892  MEMB      81              0.0000000000
     10811        87  POPC      H7X           -15.6090134550        3.6100292749       -9.0016935084  MEMB      81              0.0000000000
     10812        87  POPC      H7Y           -16.9182727360        4.7327948207       -8.5101884489  MEMB      81              0.0000000000
     10813        87  POPC      C38           -14.9680494466        5.1851375766       -7.6586856636  MEMB      81              0.0000000000
     10814        87  POPC      H8X           -15.5422675784        5.9175924656       -7.0523574098  MEMB      81              0.0000000000
     10815        87  POPC      H8Y           -14.0947388699        5.7206709320       -8.0958941463  MEMB      81              0.0000000000
     10816        87  POPC      C39           -14.4450479148        4.0663855759       -6.7519831663  MEMB      81              0.0000000000
     10817        87  POPC      H9X           -13.8467147596        3.3563825081       -7.3676653261  MEMB      81              0.0000000000
     10818        87  POPC      H9Y           -15.3085801624        3.5073587988       -6.3249503417  MEMB      81              0.0000000000
     10819        87  POPC      C310          -13.5708248440        4.5921036200       -5.6052053379  MEMB      81              0.0000000000
     10820        87  POPC      H10X          -13.2273127568        3.7289755023       -4.9911732635  MEMB      81              0.0000000000
     10821        87  POPC      H10Y          -14.1853237717        5.2485402384       -4.9510718596  MEMB      81              0.0000000000
     10822        87  POPC      C311          -12.3368256619        5.3695082341       -6.0879876027  MEMB      81              0.0000000000
     10823        87  POPC      H11X          -12.6401667388        6.3307006144       -6.5563121988  MEMB      81              0.0000000000
     10824        87  POPC      H11Y          -11.8259837019        4.7598042620       -6.8668070491  MEMB      81              0.0000000000
     10825        87  POPC      C312          -11.3427972956        5.6517424888       -4.9582356159  MEMB      81              0.0000000000
     10826        87  POPC      H12X          -10.3468976560        5.8927879053       -5.3958186286  MEMB      81              0.0000000000
     10827        87  POPC      H12Y          -11.2388717191        4.7237417342       -4.3520807755  MEMB      81              0.0000000000
     10828        87  POPC      C313          -11.7540840624        6.8091250172       -4.0416306347  MEMB      81              0.0000000000
     10829        87  POPC      H13X          -12.8614764409        6.8341173153       -3.9393732123  MEMB      81              0.0000000000
     10830        87  POPC      H13Y          -11.4376364400        7.7672730832       -4.5040537945  MEMB      81              0.0000000000
     10831        87  POPC      C314          -11.1389767978        6.6979031200       -2.6428936683  MEMB      81              0.0000000000
     10832        87  POPC      H14X          -10.0373152622        6.5908860255       -2.7321558769  MEMB      81              0.0000000000
     10833        87  POPC      H14Y          -11.5301310246        5.7768465647       -2.1549224395  MEMB      81              0.0000000000
     10834        87  POPC      C315          -11.4548118688        7.9110149543       -1.7656955960  MEMB      81              0.0000000000
     10835        87  POPC      H15X          -12.5196938660        8.1949075536       -1.9153651032  MEMB      81              0.0000000000
     10836        87  POPC      H15Y          -10.8311007389        8.7686347127       -2.1047243689  MEMB      81              0.0000000000
     10837        87  POPC      C316          -11.2180734477        7.6566300898       -0.2785198048  MEMB      81              0.0000000000
     10838        87  POPC      H16X          -11.4209664367        8.5748691990        0.3126540981  MEMB      81              0.0000000000
     10839        87  POPC      H16Y          -10.1670684635        7.3431467288       -0.1053632101  MEMB      81              0.0000000000
     10840        87  POPC      H16Z          -11.8880766303        6.8495246316        0.0894390068  MEMB      81              0.0000000000
     10841        88  POPS      N               9.8048390453      -20.2749131518      -21.4835701638  MEMB      82              0.0000000000
     10842        88  POPS      HN1            10.6510717874      -20.8677965923      -21.6498675531  MEMB      82              0.0000000000
     10843        88  POPS      HN2             9.1138293764      -20.7478711556      -20.8731718690  MEMB      82              0.0000000000
     10844        88  POPS      HN3             9.3472395211      -20.0677262445      -22.3901618855  MEMB      82              0.0000000000
     10845        88  POPS      C12            10.2776200786      -19.0170586548      -20.8086395151  MEMB      82              0.0000000000
     10846        88  POPS      H12A            9.6037349619      -18.2014522358      -21.0250017909  MEMB      82              0.0000000000
     10847        88  POPS      C13            11.7091333229      -18.6742766345      -21.2933651836  MEMB      82              0.0000000000
     10848        88  POPS      O13A           12.4689301723      -19.6482435936      -21.5415645039  MEMB      82              0.0000000000
     10849        88  POPS      O13B           12.0431189378      -17.4802023757      -21.5194115532  MEMB      82              0.0000000000
     10850        88  POPS      C11            10.2708065723      -19.3391030174      -19.2847650351  MEMB      82              0.0000000000
     10851        88  POPS      H11A           11.1285177324      -20.0029291159      -19.0342555797  MEMB      82              0.0000000000
     10852        88  POPS      H11B            9.3332148503      -19.9159977358      -19.0782384651  MEMB      82              0.0000000000
     10853        88  POPS      P               9.5665734987      -18.1826462106      -17.0794693682  MEMB      82              0.0000000000
     10854        88  POPS      O13             8.1242197529      -18.1049082648      -17.3975299582  MEMB      82              0.0000000000
     10855        88  POPS      O14            10.1725898859      -17.2247811547      -16.1451902977  MEMB      82              0.0000000000
     10856        88  POPS      O12            10.3334605283      -18.1583111474      -18.4763641380  MEMB      82              0.0000000000
     10857        88  POPS      O11             9.9090385928      -19.6370294475      -16.5799449735  MEMB      82              0.0000000000
     10858        88  POPS      C1              8.9308188124      -20.6300754562      -16.3019046340  MEMB      82              0.0000000000
     10859        88  POPS      HA              9.4542984735      -21.6095914343      -16.2967404876  MEMB      82              0.0000000000
     10860        88  POPS      HB              8.1421941540      -20.6759229840      -17.0887741994  MEMB      82              0.0000000000
     10861        88  POPS      C2              8.2364277963      -20.4806221438      -14.9154916815  MEMB      82              0.0000000000
     10862        88  POPS      HS              7.4708435721      -19.6735789778      -15.0348471835  MEMB      82              0.0000000000
     10863        88  POPS      O21             9.1873069943      -20.1245318469      -13.8971171666  MEMB      82              0.0000000000
     10864        88  POPS      C21             8.6448636551      -19.6833519686      -12.7743078136  MEMB      82              0.0000000000
     10865        88  POPS      O22             7.4490447307      -19.5748532865      -12.5563854082  MEMB      82              0.0000000000
     10866        88  POPS      C22             9.7793647272      -19.3757965644      -11.7966203541  MEMB      82              0.0000000000
     10867        88  POPS      H2R            10.4121054243      -18.6083983139      -12.2891802684  MEMB      82              0.0000000000
     10868        88  POPS      H2S            10.3747817706      -20.3047017476      -11.6693671188  MEMB      82              0.0000000000
     10869        88  POPS      C3              7.5285802750      -21.8149957144      -14.5637953930  MEMB      82              0.0000000000
     10870        88  POPS      HX              6.8857669774      -22.0255433543      -15.4404593621  MEMB      82              0.0000000000
     10871        88  POPS      HY              6.8555943614      -21.7164850903      -13.6821291225  MEMB      82              0.0000000000
     10872        88  POPS      O31             8.4698436986      -22.9053639454      -14.4537685050  MEMB      82              0.0000000000
     10873        88  POPS      C31             8.8413126617      -23.2214104693      -13.2182863663  MEMB      82              0.0000000000
     10874        88  POPS      O32             8.4671773659      -22.6868000945      -12.1915123670  MEMB      82              0.0000000000
     10875        88  POPS      C32             9.7590630551      -24.4470238363      -13.2943933167  MEMB      82              0.0000000000
     10876        88  POPS      H2X             9.5590922266      -24.9598794832      -14.2576048642  MEMB      82              0.0000000000
     10877        88  POPS      H2Y             9.4722281011      -25.1273219511      -12.4682732304  MEMB      82              0.0000000000
     10878        88  POPS      C23             9.2927225109      -18.8858550349      -10.4152267633  MEMB      82              0.0000000000
     10879        88  POPS      H3R             8.6531664072      -19.6740922208       -9.9514908990  MEMB      82              0.0000000000
     10880        88  POPS      H3S             8.6683381349      -17.9699793840      -10.5285921229  MEMB      82              0.0000000000
     10881        88  POPS      C24            10.4593490295      -18.5834589515       -9.4628291085  MEMB      82              0.0000000000
     10882        88  POPS      H4R            11.1212540778      -19.4770506105       -9.4089828893  MEMB      82              0.0000000000
     10883        88  POPS      H4S            10.0483257729      -18.4075488141       -8.4465681959  MEMB      82              0.0000000000
     10884        88  POPS      C25            11.2769123535      -17.3549366495       -9.8829787376  MEMB      82              0.0000000000
     10885        88  POPS      H5R            10.6521566202      -16.4398888027       -9.7868892203  MEMB      82              0.0000000000
     10886        88  POPS      H5S            11.5420097962      -17.4461988417      -10.9606722389  MEMB      82              0.0000000000
     10887        88  POPS      C26            12.5932473768      -17.1784231653       -9.1113757437  MEMB      82              0.0000000000
     10888        88  POPS      H6R            13.2294458564      -16.4929868818       -9.7209717129  MEMB      82              0.0000000000
     10889        88  POPS      H6S            13.1347412537      -18.1446165630       -9.0337342551  MEMB      82              0.0000000000
     10890        88  POPS      C27            12.4424089157      -16.5261637949       -7.7266699237  MEMB      82              0.0000000000
     10891        88  POPS      H7R            11.6428922026      -15.7579170594       -7.7758440451  MEMB      82              0.0000000000
     10892        88  POPS      H7S            13.4037224410      -16.0095772631       -7.4970972953  MEMB      82              0.0000000000
     10893        88  POPS      C28            12.1219148914      -17.5162974319       -6.5957999284  MEMB      82              0.0000000000
     10894        88  POPS      H8R            12.7271604943      -18.4350639930       -6.7582318088  MEMB      82              0.0000000000
     10895        88  POPS      H8S            11.0592543052      -17.8228030800       -6.6883755118  MEMB      82              0.0000000000
     10896        88  POPS      C29            12.3535488121      -16.9176173284       -5.2299950930  MEMB      82              0.0000000000
     10897        88  POPS      H91            11.9106815097      -15.9203529294       -5.0744154923  MEMB      82              0.0000000000
     10898        88  POPS      C210           13.0328019336      -17.5014631953       -4.2276177334  MEMB      82              0.0000000000
     10899        88  POPS      H101           13.1214439416      -16.9772926377       -3.2625546170  MEMB      82              0.0000000000
     10900        88  POPS      C211           13.6871198397      -18.8611979151       -4.2885911313  MEMB      82              0.0000000000
     10901        88  POPS      H11R           14.4745945989      -18.9153914286       -3.5169000960  MEMB      82              0.0000000000
     10902        88  POPS      H11S           14.2126390701      -18.9936126693       -5.2615170637  MEMB      82              0.0000000000
     10903        88  POPS      C212           12.7217659446      -20.0550245758       -4.1040906031  MEMB      82              0.0000000000
     10904        88  POPS      H12R           13.2829063108      -21.0090706013       -4.2092191146  MEMB      82              0.0000000000
     10905        88  POPS      H12S           11.9812401246      -20.0177980222       -4.9365353178  MEMB      82              0.0000000000
     10906        88  POPS      C213           11.9455592921      -20.0606316129       -2.7748313970  MEMB      82              0.0000000000
     10907        88  POPS      H13R           10.8588804614      -20.1223400537       -3.0130077703  MEMB      82              0.0000000000
     10908        88  POPS      H13S           12.1004948677      -19.0948671172       -2.2469402858  MEMB      82              0.0000000000
     10909        88  POPS      C214           12.2874287833      -21.2094574413       -1.8058283283  MEMB      82              0.0000000000
     10910        88  POPS      H14R           13.3743748775      -21.1970447715       -1.5722139146  MEMB      82              0.0000000000
     10911        88  POPS      H14S           12.0437077348      -22.1855362816       -2.2808397105  MEMB      82              0.0000000000
     10912        88  POPS      C215           11.4794025582      -21.0460886485       -0.5080859435  MEMB      82              0.0000000000
     10913        88  POPS      H15R           10.4043610816      -21.0138708997       -0.7744700103  MEMB      82              0.0000000000
     10914        88  POPS      H15S           11.7373197072      -20.0525500923       -0.0721797326  MEMB      82              0.0000000000
     10915        88  POPS      C216           11.6904344085      -22.1150307083        0.5788226542  MEMB      82              0.0000000000
     10916        88  POPS      H16R           11.9889987143      -21.5874245511        1.5117437456  MEMB      82              0.0000000000
     10917        88  POPS      H16S           12.5423441103      -22.7663266939        0.3003983738  MEMB      82              0.0000000000
     10918        88  POPS      C217           10.4429432204      -22.9525281872        0.9214521680  MEMB      82              0.0000000000
     10919        88  POPS      H17R           10.6846733239      -24.0273434092        0.8039665982  MEMB      82              0.0000000000
     10920        88  POPS      H17S            9.6235022692      -22.7323469182        0.2041444614  MEMB      82              0.0000000000
     10921        88  POPS      C218            9.9352077778      -22.7681226894        2.3562939323  MEMB      82              0.0000000000
     10922        88  POPS      H18R           10.7402307619      -22.9967100498        3.0858214707  MEMB      82              0.0000000000
     10923        88  POPS      H18S            9.0789670089      -23.4427136396        2.5573346598  MEMB      82              0.0000000000
     10924        88  POPS      H18T            9.5848930118      -21.7329913988        2.5286943875  MEMB      82              0.0000000000
     10925        88  POPS      C33            11.2554899547      -24.0687375258      -13.2108955771  MEMB      82              0.0000000000
     10926        88  POPS      H3X            11.4652401642      -23.2093085722      -13.8897036135  MEMB      82              0.0000000000
     10927        88  POPS      H3Y            11.8698787881      -24.9285679669      -13.5606802992  MEMB      82              0.0000000000
     10928        88  POPS      C34            11.7123483489      -23.7187742369      -11.7881102447  MEMB      82              0.0000000000
     10929        88  POPS      H4X            11.0562296235      -22.9173190544      -11.3809895292  MEMB      82              0.0000000000
     10930        88  POPS      H4Y            12.7464357099      -23.3063874744      -11.8332232240  MEMB      82              0.0000000000
     10931        88  POPS      C35            11.7185831148      -24.9234304142      -10.8324843287  MEMB      82              0.0000000000
     10932        88  POPS      H5X            12.3595080770      -25.7220804199      -11.2689573487  MEMB      82              0.0000000000
     10933        88  POPS      H5Y            10.6900950234      -25.3336294515      -10.7250361910  MEMB      82              0.0000000000
     10934        88  POPS      C36            12.2389101789      -24.5813836357       -9.4280495223  MEMB      82              0.0000000000
     10935        88  POPS      H6X            13.2694374720      -24.1680427163       -9.5006358733  MEMB      82              0.0000000000
     10936        88  POPS      H6Y            12.2940440190      -25.5236834956       -8.8374963302  MEMB      82              0.0000000000
     10937        88  POPS      C37            11.3397933280      -23.5866052033       -8.6802740380  MEMB      82              0.0000000000
     10938        88  POPS      H7X            10.2914119761      -23.9559951757       -8.7279109475  MEMB      82              0.0000000000
     10939        88  POPS      H7Y            11.3714232790      -22.5978119253       -9.1916325939  MEMB      82              0.0000000000
     10940        88  POPS      C38            11.7501138489      -23.3931676565       -7.2131428994  MEMB      82              0.0000000000
     10941        88  POPS      H8X            12.8294652681      -23.1187059325       -7.1787929428  MEMB      82              0.0000000000
     10942        88  POPS      H8Y            11.6319386458      -24.3558989662       -6.6677259641  MEMB      82              0.0000000000
     10943        88  POPS      C39            10.9454015800      -22.2948425557       -6.4964694914  MEMB      82              0.0000000000
     10944        88  POPS      H9X            11.1533095225      -21.3247312121       -7.0027396464  MEMB      82              0.0000000000
     10945        88  POPS      H9Y            11.3008630601      -22.2136766214       -5.4450077073  MEMB      82              0.0000000000
     10946        88  POPS      C310            9.4284766681      -22.5409036717       -6.4890812943  MEMB      82              0.0000000000
     10947        88  POPS      H10X            9.2273143571      -23.5252057543       -6.0095732966  MEMB      82              0.0000000000
     10948        88  POPS      H10Y            9.0605570885      -22.5925630746       -7.5380622472  MEMB      82              0.0000000000
     10949        88  POPS      C311            8.6148846609      -21.4545894087       -5.7653857024  MEMB      82              0.0000000000
     10950        88  POPS      H11X            8.8814817256      -21.4638990086       -4.6865780285  MEMB      82              0.0000000000
     10951        88  POPS      H11Y            7.5356704137      -21.7153185254       -5.8510497346  MEMB      82              0.0000000000
     10952        88  POPS      C312            8.8261779960      -20.0334951766       -6.3178300392  MEMB      82              0.0000000000
     10953        88  POPS      H12X            8.8504957186      -20.0679029045       -7.4298396537  MEMB      82              0.0000000000
     10954        88  POPS      H12Y            9.8136127511      -19.6643501813       -5.9635004506  MEMB      82              0.0000000000
     10955        88  POPS      C313            7.7206065719      -19.0576394568       -5.8793196882  MEMB      82              0.0000000000
     10956        88  POPS      H13X            7.4375717416      -19.3037911684       -4.8377219508  MEMB      82              0.0000000000
     10957        88  POPS      H13Y            6.8269898358      -19.2303590572       -6.5211722381  MEMB      82              0.0000000000
     10958        88  POPS      C314            8.1110807621      -17.5696608291       -5.9329735286  MEMB      82              0.0000000000
     10959        88  POPS      H14X            7.1905432825      -16.9446293672       -5.9843421345  MEMB      82              0.0000000000
     10960        88  POPS      H14Y            8.6860924364      -17.3901261660       -6.8681972319  MEMB      82              0.0000000000
     10961        88  POPS      C315            8.9407291959      -17.1050076448       -4.7218687412  MEMB      82              0.0000000000
     10962        88  POPS      H15X            9.4698378264      -16.1657055604       -5.0051791545  MEMB      82              0.0000000000
     10963        88  POPS      H15Y            9.7189237864      -17.8710106446       -4.5013367165  MEMB      82              0.0000000000
     10964        88  POPS      C316            8.1309860304      -16.8212262314       -3.4522559708  MEMB      82              0.0000000000
     10965        88  POPS      H16X            7.5598728443      -17.7146215151       -3.1327983669  MEMB      82              0.0000000000
     10966        88  POPS      H16Y            7.4088801417      -15.9950030145       -3.6253918530  MEMB      82              0.0000000000
     10967        88  POPS      H16Z            8.8092243034      -16.5320736810       -2.6206764229  MEMB      82              0.0000000000
     10968        89  POPC      N              13.7059756367       14.7759746527      -20.4385198692  MEMB      83              0.0000000000
     10969        89  POPC      C12            13.2259538960       15.7928634805      -19.4222268297  MEMB      83              0.0000000000
     10970        89  POPC      H12A           12.3137357734       15.4243382774      -18.9925115245  MEMB      83              0.0000000000
     10971        89  POPC      H12B           13.0075145051       16.7068279279      -19.9656929260  MEMB      83              0.0000000000
     10972        89  POPC      C13            14.8025797749       15.3913726322      -21.2351414301  MEMB      83              0.0000000000
     10973        89  POPC      H13A           15.3850225792       16.0630589186      -20.6032061237  MEMB      83              0.0000000000
     10974        89  POPC      H13B           15.4682113978       14.6418019719      -21.6454903023  MEMB      83              0.0000000000
     10975        89  POPC      H13C           14.4234636651       15.9743746358      -22.0592024309  MEMB      83              0.0000000000
     10976        89  POPC      C14            14.2519590133       13.5716076300      -19.7586447116  MEMB      83              0.0000000000
     10977        89  POPC      H14A           14.5860896577       12.8509838602      -20.4923706454  MEMB      83              0.0000000000
     10978        89  POPC      H14B           15.0917743662       13.8650206560      -19.1304661186  MEMB      83              0.0000000000
     10979        89  POPC      H14C           13.5372585493       13.1196448693      -19.0867809912  MEMB      83              0.0000000000
     10980        89  POPC      C15            12.6367754713       14.3106236540      -21.3895655063  MEMB      83              0.0000000000
     10981        89  POPC      H15A           13.1153892688       13.6525085355      -22.1125419284  MEMB      83              0.0000000000
     10982        89  POPC      H15B           12.1840264448       15.1380170862      -21.9332065954  MEMB      83              0.0000000000
     10983        89  POPC      H15C           11.8621120804       13.7401996371      -20.8860142248  MEMB      83              0.0000000000
     10984        89  POPC      C11            14.1712419302       16.2039587361      -18.2556839927  MEMB      83              0.0000000000
     10985        89  POPC      H11A           14.5133895368       15.2874472366      -17.7269093158  MEMB      83              0.0000000000
     10986        89  POPC      H11B           13.5786754133       16.7848632552      -17.5157593591  MEMB      83              0.0000000000
     10987        89  POPC      P              16.7650970401       16.7659643523      -18.4180736586  MEMB      83              0.0000000000
     10988        89  POPC      O13            17.4522020596       17.9119926162      -17.7905540407  MEMB      83              0.0000000000
     10989        89  POPC      O14            17.3811406495       16.3202802772      -19.6930960918  MEMB      83              0.0000000000
     10990        89  POPC      O12            15.2313989211       17.0436586239      -18.7012300869  MEMB      83              0.0000000000
     10991        89  POPC      O11            16.7986660284       15.5313037151      -17.4314052742  MEMB      83              0.0000000000
     10992        89  POPC      C1             17.3835027748       14.3168312779      -17.9138962416  MEMB      83              0.0000000000
     10993        89  POPC      HA             18.3801142384       14.4990052772      -18.3799633126  MEMB      83              0.0000000000
     10994        89  POPC      HB             16.7335733492       13.8566353257      -18.6861352622  MEMB      83              0.0000000000
     10995        89  POPC      C2             17.6069289229       13.2681121326      -16.7931810383  MEMB      83              0.0000000000
     10996        89  POPC      HS             17.5055995578       12.2631828945      -17.2597857570  MEMB      83              0.0000000000
     10997        89  POPC      O21            16.6824237677       13.3789722219      -15.7029480497  MEMB      83              0.0000000000
     10998        89  POPC      C21            15.4028449973       13.2604616573      -15.9540980612  MEMB      83              0.0000000000
     10999        89  POPC      O22            14.8958994441       12.8510855367      -16.9883408202  MEMB      83              0.0000000000
     11000        89  POPC      C22            14.6227815772       13.5210502938      -14.6751832746  MEMB      83              0.0000000000
     11001        89  POPC      H2R            14.9835384237       12.8046591826      -13.9082601621  MEMB      83              0.0000000000
     11002        89  POPC      H2S            13.5649529005       13.2862769041      -14.8992449383  MEMB      83              0.0000000000
     11003        89  POPC      C3             19.0671228424       13.3862095631      -16.2409030015  MEMB      83              0.0000000000
     11004        89  POPC      HX             19.7639490362       13.3359169133      -17.1050045858  MEMB      83              0.0000000000
     11005        89  POPC      HY             19.2995236714       12.4880025860      -15.6267003675  MEMB      83              0.0000000000
     11006        89  POPC      O31            19.3078066382       14.6320296396      -15.5315245461  MEMB      83              0.0000000000
     11007        89  POPC      C31            18.8610237440       14.5824411480      -14.2648365864  MEMB      83              0.0000000000
     11008        89  POPC      O32            18.4883467905       13.5657563952      -13.7109744685  MEMB      83              0.0000000000
     11009        89  POPC      C32            18.9339463217       15.9566999656      -13.6020247269  MEMB      83              0.0000000000
     11010        89  POPC      H2X            18.5986082304       16.7249069180      -14.3302955798  MEMB      83              0.0000000000
     11011        89  POPC      H2Y            19.9960480498       16.1323513604      -13.3414597158  MEMB      83              0.0000000000
     11012        89  POPC      C23            14.7128621185       14.9513319397      -14.1165178930  MEMB      83              0.0000000000
     11013        89  POPC      H3R            14.5044756250       15.7046434661      -14.9091565245  MEMB      83              0.0000000000
     11014        89  POPC      H3S            15.7413192566       15.1429376280      -13.7401347197  MEMB      83              0.0000000000
     11015        89  POPC      C24            13.7024133742       15.1154754365      -12.9742324295  MEMB      83              0.0000000000
     11016        89  POPC      H4R            13.9376821324       14.3883533827      -12.1657132983  MEMB      83              0.0000000000
     11017        89  POPC      H4S            12.6913063541       14.8665202716      -13.3642811623  MEMB      83              0.0000000000
     11018        89  POPC      C25            13.6648539677       16.5297268175      -12.3962539298  MEMB      83              0.0000000000
     11019        89  POPC      H5R            13.4868293328       17.2315932328      -13.2403720093  MEMB      83              0.0000000000
     11020        89  POPC      H5S            14.6547456916       16.7656929523      -11.9448943264  MEMB      83              0.0000000000
     11021        89  POPC      C26            12.5508176379       16.7242457659      -11.3568272668  MEMB      83              0.0000000000
     11022        89  POPC      H6R            12.0105108737       15.7644574592      -11.2069519344  MEMB      83              0.0000000000
     11023        89  POPC      H6S            11.8176802143       17.4527618918      -11.7741772685  MEMB      83              0.0000000000
     11024        89  POPC      C27            13.0397024499       17.2312646295       -9.9892786389  MEMB      83              0.0000000000
     11025        89  POPC      H7R            12.2392880743       17.8864635533       -9.5781962188  MEMB      83              0.0000000000
     11026        89  POPC      H7S            13.9467569825       17.8612911496      -10.1033519625  MEMB      83              0.0000000000
     11027        89  POPC      C28            13.2566844722       16.1120941868       -8.9475837919  MEMB      83              0.0000000000
     11028        89  POPC      H8R            12.2935929122       15.5721805174       -8.8504552282  MEMB      83              0.0000000000
     11029        89  POPC      H8S            13.4263461277       16.5933817099       -7.9599323447  MEMB      83              0.0000000000
     11030        89  POPC      C29            14.4084280929       15.1828430465       -9.2556608642  MEMB      83              0.0000000000
     11031        89  POPC      H91            15.3645890050       15.6947481613       -9.4158965840  MEMB      83              0.0000000000
     11032        89  POPC      C210           14.3862316380       13.8393342380       -9.3455623878  MEMB      83              0.0000000000
     11033        89  POPC      H101           15.3237360658       13.3097328260       -9.5807604550  MEMB      83              0.0000000000
     11034        89  POPC      C211           13.1786571537       12.9605881549       -9.1527010927  MEMB      83              0.0000000000
     11035        89  POPC      H11R           13.0043591389       12.3587410011      -10.0730871935  MEMB      83              0.0000000000
     11036        89  POPC      H11S           12.2624356550       13.5677250530       -9.0137870909  MEMB      83              0.0000000000
     11037        89  POPC      C212           13.2561448547       11.9964311169       -7.9541397899  MEMB      83              0.0000000000
     11038        89  POPC      H12R           13.9242526039       11.1494071589       -8.2079010987  MEMB      83              0.0000000000
     11039        89  POPC      H12S           12.2383015407       11.5730319601       -7.7943395886  MEMB      83              0.0000000000
     11040        89  POPC      C213           13.7529335066       12.6093351075       -6.6359802771  MEMB      83              0.0000000000
     11041        89  POPC      H13R           14.8117047091       12.9354395905       -6.7437296142  MEMB      83              0.0000000000
     11042        89  POPC      H13S           13.7427069512       11.7943479899       -5.8769842294  MEMB      83              0.0000000000
     11043        89  POPC      C214           12.9123946071       13.7921486720       -6.1310029529  MEMB      83              0.0000000000
     11044        89  POPC      H14R           12.0678106212       13.9739764875       -6.8338707301  MEMB      83              0.0000000000
     11045        89  POPC      H14S           13.5372224995       14.7131458077       -6.1222555665  MEMB      83              0.0000000000
     11046        89  POPC      C215           12.3174413447       13.5521119253       -4.7386206303  MEMB      83              0.0000000000
     11047        89  POPC      H15R           11.6978686938       12.6286139396       -4.7882369583  MEMB      83              0.0000000000
     11048        89  POPC      H15S           11.6361284966       14.3923069467       -4.4800394118  MEMB      83              0.0000000000
     11049        89  POPC      C216           13.3594859639       13.3942087675       -3.6214323246  MEMB      83              0.0000000000
     11050        89  POPC      H16R           13.8358788208       14.3770305415       -3.4093911898  MEMB      83              0.0000000000
     11051        89  POPC      H16S           14.1634150408       12.6956003588       -3.9430484888  MEMB      83              0.0000000000
     11052        89  POPC      C217           12.7168244115       12.8254890366       -2.3511640351  MEMB      83              0.0000000000
     11053        89  POPC      H17R           12.1557712006       11.9052105257       -2.6295134724  MEMB      83              0.0000000000
     11054        89  POPC      H17S           11.9764760366       13.5595432831       -1.9660288050  MEMB      83              0.0000000000
     11055        89  POPC      C218           13.7127373754       12.4776235568       -1.2478779545  MEMB      83              0.0000000000
     11056        89  POPC      H18R           13.1956050148       12.0005416909       -0.3882985787  MEMB      83              0.0000000000
     11057        89  POPC      H18S           14.2134002058       13.3951798924       -0.8806962965  MEMB      83              0.0000000000
     11058        89  POPC      H18T           14.4875548743       11.7771434172       -1.6283896956  MEMB      83              0.0000000000
     11059        89  POPC      C33            18.0506636430       16.0135202911      -12.3287721940  MEMB      83              0.0000000000
     11060        89  POPC      H3X            17.8672854475       14.9960638989      -11.9127581168  MEMB      83              0.0000000000
     11061        89  POPC      H3Y            17.0591602602       16.4297967983      -12.6214526154  MEMB      83              0.0000000000
     11062        89  POPC      C34            18.5940727662       16.8565530634      -11.1685085386  MEMB      83              0.0000000000
     11063        89  POPC      H4X            18.7308341836       17.9050628649      -11.5126838967  MEMB      83              0.0000000000
     11064        89  POPC      H4Y            19.5805533805       16.4690680006      -10.8341229550  MEMB      83              0.0000000000
     11065        89  POPC      C35            17.5811180313       16.8086913670      -10.0099406889  MEMB      83              0.0000000000
     11066        89  POPC      H5X            17.4955807452       15.7652111707       -9.6359283799  MEMB      83              0.0000000000
     11067        89  POPC      H5Y            16.5950802636       17.0857716147      -10.4501309607  MEMB      83              0.0000000000
     11068        89  POPC      C36            17.8656161253       17.7527799727       -8.8320773229  MEMB      83              0.0000000000
     11069        89  POPC      H6X            18.6251968546       18.4773459248       -9.1962671560  MEMB      83              0.0000000000
     11070        89  POPC      H6Y            18.3239626282       17.2113952359       -7.9799716247  MEMB      83              0.0000000000
     11071        89  POPC      C37            16.6284780139       18.5596535831       -8.3796250017  MEMB      83              0.0000000000
     11072        89  POPC      H7X            15.9565280130       18.7185999371       -9.2507652553  MEMB      83              0.0000000000
     11073        89  POPC      H7Y            16.9627733608       19.5609636288       -8.0462691884  MEMB      83              0.0000000000
     11074        89  POPC      C38            15.8215361970       17.9859457923       -7.2052447488  MEMB      83              0.0000000000
     11075        89  POPC      H8X            15.4901378319       16.9579688886       -7.4570256928  MEMB      83              0.0000000000
     11076        89  POPC      H8Y            14.9085512564       18.6126988392       -7.0755778420  MEMB      83              0.0000000000
     11077        89  POPC      C39            16.5786180257       17.9466243857       -5.8696931058  MEMB      83              0.0000000000
     11078        89  POPC      H9X            15.9746353617       18.4594089123       -5.0859485043  MEMB      83              0.0000000000
     11079        89  POPC      H9Y            17.5420504465       18.4947853460       -5.9580112106  MEMB      83              0.0000000000
     11080        89  POPC      C310           16.8235763442       16.5013094438       -5.4270513724  MEMB      83              0.0000000000
     11081        89  POPC      H10X           17.4012906080       15.9632551358       -6.2109999407  MEMB      83              0.0000000000
     11082        89  POPC      H10Y           15.8307325008       15.9978295328       -5.3584210123  MEMB      83              0.0000000000
     11083        89  POPC      C311           17.5452091326       16.3690592709       -4.0828771456  MEMB      83              0.0000000000
     11084        89  POPC      H11X           17.7134498089       17.3670765047       -3.6216875473  MEMB      83              0.0000000000
     11085        89  POPC      H11Y           18.5448403057       15.9107836070       -4.2635427909  MEMB      83              0.0000000000
     11086        89  POPC      C312           16.7573215814       15.4847850835       -3.1107944465  MEMB      83              0.0000000000
     11087        89  POPC      H12X           16.3039289960       14.6385746770       -3.6769135536  MEMB      83              0.0000000000
     11088        89  POPC      H12Y           15.9256669399       16.0688682729       -2.6577525002  MEMB      83              0.0000000000
     11089        89  POPC      C313           17.6381475965       14.8782845884       -2.0193957824  MEMB      83              0.0000000000
     11090        89  POPC      H13X           18.1557275494       15.6884415148       -1.4602279304  MEMB      83              0.0000000000
     11091        89  POPC      H13Y           18.4125311468       14.2438269163       -2.5070314968  MEMB      83              0.0000000000
     11092        89  POPC      C314           16.8228890813       14.0161995628       -1.0537123451  MEMB      83              0.0000000000
     11093        89  POPC      H14X           16.2712888017       13.2537337578       -1.6443523889  MEMB      83              0.0000000000
     11094        89  POPC      H14Y           16.0763943973       14.6687432785       -0.5473915560  MEMB      83              0.0000000000
     11095        89  POPC      C315           17.6726598962       13.3033483727       -0.0005524266  MEMB      83              0.0000000000
     11096        89  POPC      H15X           17.1495643226       13.3553032202        0.9815969404  MEMB      83              0.0000000000
     11097        89  POPC      H15Y           18.6304308075       13.8525273543        0.1058153033  MEMB      83              0.0000000000
     11098        89  POPC      C316           17.9555395536       11.8386066049       -0.3357868778  MEMB      83              0.0000000000
     11099        89  POPC      H16X           18.4522827984       11.7538502479       -1.3260048658  MEMB      83              0.0000000000
     11100        89  POPC      H16Y           17.0104491978       11.2573177219       -0.3681460087  MEMB      83              0.0000000000
     11101        89  POPC      H16Z           18.6203872470       11.3863882177        0.4288238838  MEMB      83              0.0000000000
     11102        90  POPC      N               6.9890855774       18.8995300865      -18.2694865152  MEMB      84              0.0000000000
     11103        90  POPC      C12             8.0341619956       19.2611218888      -19.3112110148  MEMB      84              0.0000000000
     11104        90  POPC      H12A            7.5809070689       19.2193008237      -20.2971119804  MEMB      84              0.0000000000
     11105        90  POPC      H12B            8.8069959515       18.5084724462      -19.3057451995  MEMB      84              0.0000000000
     11106        90  POPC      C13             5.7626851053       19.7010115085      -18.5877655886  MEMB      84              0.0000000000
     11107        90  POPC      H13A            6.0543171195       20.7351927143      -18.7933399314  MEMB      84              0.0000000000
     11108        90  POPC      H13B            5.2702471811       19.2784647656      -19.4595821958  MEMB      84              0.0000000000
     11109        90  POPC      H13C            5.0299537192       19.6662425403      -17.7952840832  MEMB      84              0.0000000000
     11110        90  POPC      C14             6.5969609665       17.4634749652      -18.3514326224  MEMB      84              0.0000000000
     11111        90  POPC      H14A            5.7683443943       17.2533000134      -17.6682270186  MEMB      84              0.0000000000
     11112        90  POPC      H14B            6.1246691540       17.2577594470      -19.3173222586  MEMB      84              0.0000000000
     11113        90  POPC      H14C            7.3935481089       16.7780291268      -18.1395754252  MEMB      84              0.0000000000
     11114        90  POPC      C15             7.4829320784       19.2297664115      -16.9018280966  MEMB      84              0.0000000000
     11115        90  POPC      H15A            8.3978132715       18.7005198406      -16.6590565649  MEMB      84              0.0000000000
     11116        90  POPC      H15B            6.7483995213       19.0159517212      -16.1338215488  MEMB      84              0.0000000000
     11117        90  POPC      H15C            7.7282442965       20.2902594463      -16.8842108564  MEMB      84              0.0000000000
     11118        90  POPC      C11             8.7681727803       20.6346423057      -19.2130923808  MEMB      84              0.0000000000
     11119        90  POPC      H11A            9.3826053207       20.6474742096      -20.1554444688  MEMB      84              0.0000000000
     11120        90  POPC      H11B            9.4912402053       20.6104755670      -18.3700202883  MEMB      84              0.0000000000
     11121        90  POPC      P               8.4971977822       23.0952454687      -19.8554929090  MEMB      84              0.0000000000
     11122        90  POPC      O13             7.9048291332       24.3485439042      -19.3251435027  MEMB      84              0.0000000000
     11123        90  POPC      O14             8.3701949055       22.7952577769      -21.3036731913  MEMB      84              0.0000000000
     11124        90  POPC      O12             7.9199818163       21.8037714076      -19.0726884351  MEMB      84              0.0000000000
     11125        90  POPC      O11            10.0346153631       23.0093196506      -19.5227568728  MEMB      84              0.0000000000
     11126        90  POPC      C1             10.6536000536       23.8341325380      -18.5443302176  MEMB      84              0.0000000000
     11127        90  POPC      HA             10.1095293566       24.7913112141      -18.3704295608  MEMB      84              0.0000000000
     11128        90  POPC      HB             11.6601256773       24.0936545797      -18.9384736828  MEMB      84              0.0000000000
     11129        90  POPC      C2             10.8337627078       23.0870031027      -17.2009572418  MEMB      84              0.0000000000
     11130        90  POPC      HS             11.2972178703       22.1026050917      -17.4523472333  MEMB      84              0.0000000000
     11131        90  POPC      O21             9.5608771038       22.9600817437      -16.5358115615  MEMB      84              0.0000000000
     11132        90  POPC      C21             9.4513821159       21.8569918636      -15.8281699060  MEMB      84              0.0000000000
     11133        90  POPC      O22            10.1470049239       20.8553949670      -15.9105939912  MEMB      84              0.0000000000
     11134        90  POPC      C22             8.2972310738       22.0000437971      -14.8307285891  MEMB      84              0.0000000000
     11135        90  POPC      H2R             7.8032486585       21.0114664167      -14.7504089633  MEMB      84              0.0000000000
     11136        90  POPC      H2S             7.5646264446       22.7421274856      -15.2039404654  MEMB      84              0.0000000000
     11137        90  POPC      C3             11.8013894681       23.8654749651      -16.2749893899  MEMB      84              0.0000000000
     11138        90  POPC      HX             11.4195607202       24.9066931537      -16.1994839533  MEMB      84              0.0000000000
     11139        90  POPC      HY             12.7879755110       23.8977669119      -16.7896644316  MEMB      84              0.0000000000
     11140        90  POPC      O31            11.9126209085       23.2469013945      -14.9743787376  MEMB      84              0.0000000000
     11141        90  POPC      C31            12.5862124244       23.9868135015      -14.0909138297  MEMB      84              0.0000000000
     11142        90  POPC      O32            12.8688938988       25.1665645386      -14.2355271862  MEMB      84              0.0000000000
     11143        90  POPC      C32            13.0206747664       23.0923101260      -12.9193796629  MEMB      84              0.0000000000
     11144        90  POPC      H2X            14.1287160666       23.0498333383      -12.9644796645  MEMB      84              0.0000000000
     11145        90  POPC      H2Y            12.6198783338       22.0711713373      -13.0829264200  MEMB      84              0.0000000000
     11146        90  POPC      C23             8.8364569097       22.3902858183      -13.4389031103  MEMB      84              0.0000000000
     11147        90  POPC      H3R             9.1093384485       23.4628434567      -13.4515356245  MEMB      84              0.0000000000
     11148        90  POPC      H3S             9.7680701486       21.8114528896      -13.2228095452  MEMB      84              0.0000000000
     11149        90  POPC      C24             7.8642413697       22.1276923522      -12.2810875568  MEMB      84              0.0000000000
     11150        90  POPC      H4R             8.4370258729       22.2897746772      -11.3434615811  MEMB      84              0.0000000000
     11151        90  POPC      H4S             7.5536770177       21.0605633868      -12.2880261065  MEMB      84              0.0000000000
     11152        90  POPC      C25             6.6210931515       23.0350443039      -12.2608872461  MEMB      84              0.0000000000
     11153        90  POPC      H5R             6.0033804732       22.8127225944      -13.1587028693  MEMB      84              0.0000000000
     11154        90  POPC      H5S             6.9335877249       24.1008371887      -12.3193019790  MEMB      84              0.0000000000
     11155        90  POPC      C26             5.7545636962       22.8369925591      -11.0038696673  MEMB      84              0.0000000000
     11156        90  POPC      H6R             5.5357517044       21.7485055570      -10.9112915655  MEMB      84              0.0000000000
     11157        90  POPC      H6S             4.7827770729       23.3636412011      -11.1356360930  MEMB      84              0.0000000000
     11158        90  POPC      C27             6.4096380215       23.3357407362       -9.7024635663  MEMB      84              0.0000000000
     11159        90  POPC      H7R             6.4096582496       24.4482000544       -9.6793569994  MEMB      84              0.0000000000
     11160        90  POPC      H7S             7.4794838624       23.0320723357       -9.6946776264  MEMB      84              0.0000000000
     11161        90  POPC      C28             5.7728738847       22.7250932252       -8.4327629971  MEMB      84              0.0000000000
     11162        90  POPC      H8R             6.5984525131       22.2676342898       -7.8417727547  MEMB      84              0.0000000000
     11163        90  POPC      H8S             5.1227747168       21.8745648490       -8.7319164937  MEMB      84              0.0000000000
     11164        90  POPC      C29             4.9744542635       23.7005148963       -7.6036370471  MEMB      84              0.0000000000
     11165        90  POPC      H91             4.0569220969       24.0767996037       -8.0819156127  MEMB      84              0.0000000000
     11166        90  POPC      C210            5.3087698102       24.1748989656       -6.3887923553  MEMB      84              0.0000000000
     11167        90  POPC      H101            4.6310144669       24.8950765515       -5.9019995639  MEMB      84              0.0000000000
     11168        90  POPC      C211            6.5541916671       23.8266939455       -5.6069995196  MEMB      84              0.0000000000
     11169        90  POPC      H11R            6.8828421773       22.7891613674       -5.8339970560  MEMB      84              0.0000000000
     11170        90  POPC      H11S            6.3420492249       23.8415350155       -4.5151706300  MEMB      84              0.0000000000
     11171        90  POPC      C212            7.7277244317       24.7908235939       -5.8951415214  MEMB      84              0.0000000000
     11172        90  POPC      H12R            7.5326120642       25.7548761652       -5.3731971444  MEMB      84              0.0000000000
     11173        90  POPC      H12S            7.7983207997       25.0076365745       -6.9857201806  MEMB      84              0.0000000000
     11174        90  POPC      C213            9.0854428147       24.2412398610       -5.4211802357  MEMB      84              0.0000000000
     11175        90  POPC      H13R            8.9394261020       23.7921681038       -4.4162770879  MEMB      84              0.0000000000
     11176        90  POPC      H13S            9.8116501489       25.0788607082       -5.3148382405  MEMB      84              0.0000000000
     11177        90  POPC      C214            9.6714897923       23.2095034875       -6.3995650609  MEMB      84              0.0000000000
     11178        90  POPC      H14R            9.9712083092       23.7341821758       -7.3342893791  MEMB      84              0.0000000000
     11179        90  POPC      H14S            8.8673449766       22.4930181592       -6.6707266817  MEMB      84              0.0000000000
     11180        90  POPC      C215           10.8689394512       22.3992822971       -5.8677557172  MEMB      84              0.0000000000
     11181        90  POPC      H15R           11.7133065003       23.0758566969       -5.6248454680  MEMB      84              0.0000000000
     11182        90  POPC      H15S           11.2163286371       21.7186091208       -6.6778265669  MEMB      84              0.0000000000
     11183        90  POPC      C216           10.5173721140       21.5316394293       -4.6490975156  MEMB      84              0.0000000000
     11184        90  POPC      H16R            9.6436739045       20.9010253307       -4.9076102893  MEMB      84              0.0000000000
     11185        90  POPC      H16S           10.2025582761       22.1714381204       -3.7995443187  MEMB      84              0.0000000000
     11186        90  POPC      C217           11.6500621882       20.6094417893       -4.1786408079  MEMB      84              0.0000000000
     11187        90  POPC      H17R           12.4991329441       20.6699610918       -4.8950667258  MEMB      84              0.0000000000
     11188        90  POPC      H17S           11.2791595951       19.5586041933       -4.1954887341  MEMB      84              0.0000000000
     11189        90  POPC      C218           12.1352540632       20.9391018751       -2.7663655334  MEMB      84              0.0000000000
     11190        90  POPC      H18R           12.5494675182       21.9694389129       -2.7337779315  MEMB      84              0.0000000000
     11191        90  POPC      H18S           12.9236749818       20.2284636285       -2.4406544563  MEMB      84              0.0000000000
     11192        90  POPC      H18T           11.2928371899       20.8859832987       -2.0439124283  MEMB      84              0.0000000000
     11193        90  POPC      C33            12.5897048808       23.6163478980      -11.5312276645  MEMB      84              0.0000000000
     11194        90  POPC      H3X            11.4821578664       23.6365520145      -11.4728177733  MEMB      84              0.0000000000
     11195        90  POPC      H3Y            12.9588072445       24.6635489273      -11.4251661648  MEMB      84              0.0000000000
     11196        90  POPC      C34            13.1352756665       22.7961766144      -10.3474555184  MEMB      84              0.0000000000
     11197        90  POPC      H4X            12.9507593408       23.3755475448       -9.4132922182  MEMB      84              0.0000000000
     11198        90  POPC      H4Y            14.2359059575       22.7025393339      -10.4584446482  MEMB      84              0.0000000000
     11199        90  POPC      C35            12.5030500619       21.4031981821      -10.1737096527  MEMB      84              0.0000000000
     11200        90  POPC      H5X            13.0505290795       20.8658972398       -9.3629253484  MEMB      84              0.0000000000
     11201        90  POPC      H5Y            12.6157565120       20.8101500447      -11.1068373217  MEMB      84              0.0000000000
     11202        90  POPC      C36            11.0173257362       21.4655852881       -9.7838149707  MEMB      84              0.0000000000
     11203        90  POPC      H6X            10.4337678261       21.9352407264      -10.6023778437  MEMB      84              0.0000000000
     11204        90  POPC      H6Y            10.9089826455       22.1126255230       -8.8845672347  MEMB      84              0.0000000000
     11205        90  POPC      C37            10.4087881739       20.0904667399       -9.4694692924  MEMB      84              0.0000000000
     11206        90  POPC      H7X            11.0929812921       19.5580333743       -8.7706335335  MEMB      84              0.0000000000
     11207        90  POPC      H7Y            10.3273079369       19.4900058433      -10.4025060595  MEMB      84              0.0000000000
     11208        90  POPC      C38             9.0354715980       20.1973855423       -8.7877865585  MEMB      84              0.0000000000
     11209        90  POPC      H8X             8.3235653224       20.7553686799       -9.4346705978  MEMB      84              0.0000000000
     11210        90  POPC      H8Y             9.1788404860       20.7871713535       -7.8591752967  MEMB      84              0.0000000000
     11211        90  POPC      C39             8.4351741604       18.8313693404       -8.4291299503  MEMB      84              0.0000000000
     11212        90  POPC      H9X             9.2382921568       18.1839635970       -8.0088653565  MEMB      84              0.0000000000
     11213        90  POPC      H9Y             8.0723441279       18.3564737023       -9.3687608979  MEMB      84              0.0000000000
     11214        90  POPC      C310            7.2878475417       18.8800445928       -7.4018058222  MEMB      84              0.0000000000
     11215        90  POPC      H10X            6.8664910379       17.8548491444       -7.2883591770  MEMB      84              0.0000000000
     11216        90  POPC      H10Y            6.4823920394       19.5439731510       -7.7805976395  MEMB      84              0.0000000000
     11217        90  POPC      C311            7.7431756358       19.3795426892       -6.0237162118  MEMB      84              0.0000000000
     11218        90  POPC      H11X            7.9845593564       20.4616487452       -6.1071071615  MEMB      84              0.0000000000
     11219        90  POPC      H11Y            8.6713255906       18.8347465966       -5.7439228321  MEMB      84              0.0000000000
     11220        90  POPC      C312            6.7063707977       19.2231341598       -4.9008223568  MEMB      84              0.0000000000
     11221        90  POPC      H12X            6.3757722834       18.1629795739       -4.8381001932  MEMB      84              0.0000000000
     11222        90  POPC      H12Y            5.8190049646       19.8449449050       -5.1596743036  MEMB      84              0.0000000000
     11223        90  POPC      C313            7.2467284327       19.6708394548       -3.5285448936  MEMB      84              0.0000000000
     11224        90  POPC      H13X            6.3959957765       19.7780674560       -2.8217171348  MEMB      84              0.0000000000
     11225        90  POPC      H13Y            7.7076985739       20.6778152486       -3.6282491025  MEMB      84              0.0000000000
     11226        90  POPC      C314            8.2746372186       18.6901936461       -2.9375013820  MEMB      84              0.0000000000
     11227        90  POPC      H14X            9.1564617432       18.6553444712       -3.6149183115  MEMB      84              0.0000000000
     11228        90  POPC      H14Y            7.8401105090       17.6658740157       -2.9153721466  MEMB      84              0.0000000000
     11229        90  POPC      C315            8.7604294075       19.0601773689       -1.5262292021  MEMB      84              0.0000000000
     11230        90  POPC      H15X            8.4886259251       20.1160803048       -1.3038601967  MEMB      84              0.0000000000
     11231        90  POPC      H15Y            9.8739916758       19.0054552670       -1.5178902921  MEMB      84              0.0000000000
     11232        90  POPC      C316            8.2293744270       18.1385486947       -0.4216773150  MEMB      84              0.0000000000
     11233        90  POPC      H16X            7.1292305497       18.2453763824       -0.3127399336  MEMB      84              0.0000000000
     11234        90  POPC      H16Y            8.7067098874       18.3785643749        0.5513752834  MEMB      84              0.0000000000
     11235        90  POPC      H16Z            8.4570506750       17.0774200767       -0.6619017503  MEMB      84              0.0000000000
     11236        91  POPC      N               2.3114880946      -23.5229544761      -21.1786399811  MEMB      85              0.0000000000
     11237        91  POPC      C12             3.2172912387      -23.2787961063      -19.9793357523  MEMB      85              0.0000000000
     11238        91  POPC      H12A            3.8981380784      -22.4697762867      -20.2210265112  MEMB      85              0.0000000000
     11239        91  POPC      H12B            3.8129435280      -24.1591114661      -19.7726840165  MEMB      85              0.0000000000
     11240        91  POPC      C13             1.4470378408      -22.3202864189      -21.4035346103  MEMB      85              0.0000000000
     11241        91  POPC      H13A            0.7458153082      -22.4619337417      -22.2114579386  MEMB      85              0.0000000000
     11242        91  POPC      H13B            0.9355423527      -22.0627093518      -20.4763956087  MEMB      85              0.0000000000
     11243        91  POPC      H13C            2.0583683268      -21.4469628559      -21.6301597389  MEMB      85              0.0000000000
     11244        91  POPC      C14             3.1141664745      -23.7004456671      -22.4310864314  MEMB      85              0.0000000000
     11245        91  POPC      H14A            2.4619699477      -23.7966921832      -23.2955376916  MEMB      85              0.0000000000
     11246        91  POPC      H14B            3.7532803597      -22.8422326621      -22.6647762786  MEMB      85              0.0000000000
     11247        91  POPC      H14C            3.7569876990      -24.5671598788      -22.3739276412  MEMB      85              0.0000000000
     11248        91  POPC      C15             1.4626335374      -24.7275143012      -20.9440229588  MEMB      85              0.0000000000
     11249        91  POPC      H15A            0.7637875314      -24.8825499653      -21.7589134275  MEMB      85              0.0000000000
     11250        91  POPC      H15B            0.9048407085      -24.6008255007      -20.0238928416  MEMB      85              0.0000000000
     11251        91  POPC      H15C            2.0852700244      -25.6151859728      -20.8430850898  MEMB      85              0.0000000000
     11252        91  POPC      C11             2.5359761122      -22.8459043295      -18.6640028587  MEMB      85              0.0000000000
     11253        91  POPC      H11A            3.3059585600      -22.8788342863      -17.8540390346  MEMB      85              0.0000000000
     11254        91  POPC      H11B            1.7220485104      -23.5522111978      -18.3822878978  MEMB      85              0.0000000000
     11255        91  POPC      P               1.4811684844      -20.7674873529      -17.5294386809  MEMB      85              0.0000000000
     11256        91  POPC      O13             0.4742975453      -21.6885950780      -16.9415702316  MEMB      85              0.0000000000
     11257        91  POPC      O14             1.0586909004      -19.4063850976      -17.9129738167  MEMB      85              0.0000000000
     11258        91  POPC      O12             2.0193377184      -21.5268039142      -18.8252600269  MEMB      85              0.0000000000
     11259        91  POPC      O11             2.7785075966      -20.7306954964      -16.6229005049  MEMB      85              0.0000000000
     11260        91  POPC      C1              2.9254873758      -19.8506367011      -15.5229960017  MEMB      85              0.0000000000
     11261        91  POPC      HA              1.9817974227      -19.7718019689      -14.9350386781  MEMB      85              0.0000000000
     11262        91  POPC      HB              3.2094840874      -18.8352274799      -15.8866413806  MEMB      85              0.0000000000
     11263        91  POPC      C2              4.0258988279      -20.3919740670      -14.5767779372  MEMB      85              0.0000000000
     11264        91  POPC      HS              4.9829190800      -20.4344393765      -15.1456387618  MEMB      85              0.0000000000
     11265        91  POPC      O21             3.6402294621      -21.6851299148      -14.0817117598  MEMB      85              0.0000000000
     11266        91  POPC      C21             3.9081472810      -22.7159304933      -14.8553180063  MEMB      85              0.0000000000
     11267        91  POPC      O22             4.7384967715      -22.7368507430      -15.7482037234  MEMB      85              0.0000000000
     11268        91  POPC      C22             3.1410721503      -23.9615705212      -14.3921877674  MEMB      85              0.0000000000
     11269        91  POPC      H2R             3.8588311608      -24.5911537311      -13.8325845743  MEMB      85              0.0000000000
     11270        91  POPC      H2S             2.8437157363      -24.5060482989      -15.3134218179  MEMB      85              0.0000000000
     11271        91  POPC      C3              4.2404414254      -19.4761425680      -13.3499712668  MEMB      85              0.0000000000
     11272        91  POPC      HX              4.7088109318      -18.5221184510      -13.6675304527  MEMB      85              0.0000000000
     11273        91  POPC      HY              4.9674306155      -20.0155610348      -12.6947034164  MEMB      85              0.0000000000
     11274        91  POPC      O31             2.9802215279      -19.2304255144      -12.6838875329  MEMB      85              0.0000000000
     11275        91  POPC      C31             3.1148832296      -18.8937317642      -11.4069353916  MEMB      85              0.0000000000
     11276        91  POPC      O32             4.1820627700      -18.7028529102      -10.8506515366  MEMB      85              0.0000000000
     11277        91  POPC      C32             1.7493783114      -18.8794552247      -10.7214159955  MEMB      85              0.0000000000
     11278        91  POPC      H2X             1.7036111866      -19.8290762590      -10.1566690432  MEMB      85              0.0000000000
     11279        91  POPC      H2Y             0.9341686040      -18.8741788550      -11.4713363462  MEMB      85              0.0000000000
     11280        91  POPC      C23             1.8932553038      -23.7140251036      -13.5077316561  MEMB      85              0.0000000000
     11281        91  POPC      H3R             1.4047341871      -24.7003038253      -13.3348533003  MEMB      85              0.0000000000
     11282        91  POPC      H3S             1.1618656215      -23.0672567475      -14.0448801222  MEMB      85              0.0000000000
     11283        91  POPC      C24             2.2443106928      -23.1038390411      -12.1447165164  MEMB      85              0.0000000000
     11284        91  POPC      H4R             2.0660254540      -22.0042371960      -12.2045952330  MEMB      85              0.0000000000
     11285        91  POPC      H4S             3.3326352649      -23.2366331106      -11.9465407057  MEMB      85              0.0000000000
     11286        91  POPC      C25             1.4657392217      -23.6698652716      -10.9558922829  MEMB      85              0.0000000000
     11287        91  POPC      H5R             1.7775597087      -24.7172616741      -10.7523534365  MEMB      85              0.0000000000
     11288        91  POPC      H5S             0.3760132469      -23.6687790757      -11.1888949787  MEMB      85              0.0000000000
     11289        91  POPC      C26             1.7207419041      -22.7937579498       -9.7273045085  MEMB      85              0.0000000000
     11290        91  POPC      H6R             1.4058563899      -21.7679339605      -10.0074877523  MEMB      85              0.0000000000
     11291        91  POPC      H6S             2.8044779281      -22.7677691443       -9.4788148119  MEMB      85              0.0000000000
     11292        91  POPC      C27             0.9018109992      -23.1763967007       -8.4983346628  MEMB      85              0.0000000000
     11293        91  POPC      H7R             1.2228341490      -24.1711186071       -8.1172933245  MEMB      85              0.0000000000
     11294        91  POPC      H7S            -0.1553217025      -23.2558426873       -8.8374361335  MEMB      85              0.0000000000
     11295        91  POPC      C28             0.9987454389      -22.1075820571       -7.3928115854  MEMB      85              0.0000000000
     11296        91  POPC      H8R             0.7479279468      -21.1307711673       -7.8553320544  MEMB      85              0.0000000000
     11297        91  POPC      H8S             2.0528678382      -22.0413995108       -7.0455301370  MEMB      85              0.0000000000
     11298        91  POPC      C29             0.0376542330      -22.3808527206       -6.2654366382  MEMB      85              0.0000000000
     11299        91  POPC      H91            -1.0210915833      -22.3523074216       -6.5646215540  MEMB      85              0.0000000000
     11300        91  POPC      C210            0.3316070280      -22.6226332708       -4.9749907158  MEMB      85              0.0000000000
     11301        91  POPC      H101           -0.4921766771      -22.8244530132       -4.2723420512  MEMB      85              0.0000000000
     11302        91  POPC      C211            1.7102204901      -22.6652393078       -4.3755072900  MEMB      85              0.0000000000
     11303        91  POPC      H11R            1.6431913400      -22.5838072833       -3.2685928998  MEMB      85              0.0000000000
     11304        91  POPC      H11S            2.2598029912      -21.7629550658       -4.7157751005  MEMB      85              0.0000000000
     11305        91  POPC      C212            2.5666566740      -23.8907650260       -4.7510513332  MEMB      85              0.0000000000
     11306        91  POPC      H12R            3.6128307174      -23.6934005558       -4.4212087038  MEMB      85              0.0000000000
     11307        91  POPC      H12S            2.5905671770      -24.0113782184       -5.8576273964  MEMB      85              0.0000000000
     11308        91  POPC      C213            2.1178079181      -25.2172854242       -4.1209436647  MEMB      85              0.0000000000
     11309        91  POPC      H13R            2.8281098911      -26.0042496460       -4.4669335998  MEMB      85              0.0000000000
     11310        91  POPC      H13S            1.1081412333      -25.4909703496       -4.4944369286  MEMB      85              0.0000000000
     11311        91  POPC      C214            2.1194132498      -25.2025978922       -2.5869834348  MEMB      85              0.0000000000
     11312        91  POPC      H14R            1.1686562174      -24.7582493245       -2.2186883024  MEMB      85              0.0000000000
     11313        91  POPC      H14S            2.9580337738      -24.5538515357       -2.2425914016  MEMB      85              0.0000000000
     11314        91  POPC      C215            2.3288951597      -26.5988831781       -1.9806080139  MEMB      85              0.0000000000
     11315        91  POPC      H15R            3.2553079465      -27.0221948771       -2.4300204985  MEMB      85              0.0000000000
     11316        91  POPC      H15S            1.4741465504      -27.2597491501       -2.2445432548  MEMB      85              0.0000000000
     11317        91  POPC      C216            2.5031665078      -26.5585298187       -0.4599804046  MEMB      85              0.0000000000
     11318        91  POPC      H16R            1.5324757158      -26.2804334490        0.0042655296  MEMB      85              0.0000000000
     11319        91  POPC      H16S            3.2515649067      -25.7679456322       -0.2254485920  MEMB      85              0.0000000000
     11320        91  POPC      C217            3.0159395497      -27.8516334425        0.1757946311  MEMB      85              0.0000000000
     11321        91  POPC      H17R            4.0120752268      -28.0819239692       -0.2658723653  MEMB      85              0.0000000000
     11322        91  POPC      H17S            2.3253280874      -28.6938757534       -0.0561985813  MEMB      85              0.0000000000
     11323        91  POPC      C218            3.1992518885      -27.7290994389        1.6881375361  MEMB      85              0.0000000000
     11324        91  POPC      H18R            3.7386552418      -26.7920639934        1.9335743263  MEMB      85              0.0000000000
     11325        91  POPC      H18S            3.7966358175      -28.5803984617        2.0719406834  MEMB      85              0.0000000000
     11326        91  POPC      H18T            2.2240300545      -27.7099676557        2.2153181965  MEMB      85              0.0000000000
     11327        91  POPC      C33             1.5609914948      -17.7475783902       -9.6869032755  MEMB      85              0.0000000000
     11328        91  POPC      H3X             1.1671079002      -16.8353663230      -10.1861818145  MEMB      85              0.0000000000
     11329        91  POPC      H3Y             2.5392601727      -17.4917514057       -9.2150332754  MEMB      85              0.0000000000
     11330        91  POPC      C34             0.6213268571      -18.2030203794       -8.5601943390  MEMB      85              0.0000000000
     11331        91  POPC      H4X             1.0939517936      -19.0837184328       -8.0739340825  MEMB      85              0.0000000000
     11332        91  POPC      H4Y            -0.3528671451      -18.5216008779       -8.9918923619  MEMB      85              0.0000000000
     11333        91  POPC      C35             0.3798193363      -17.1339646211       -7.4933383881  MEMB      85              0.0000000000
     11334        91  POPC      H5X            -0.0551966272      -16.2315596624       -7.9812122613  MEMB      85              0.0000000000
     11335        91  POPC      H5Y             1.3632799046      -16.8526856571       -7.0532993414  MEMB      85              0.0000000000
     11336        91  POPC      C36            -0.5441032947      -17.5949344417       -6.3519303859  MEMB      85              0.0000000000
     11337        91  POPC      H6X            -1.5239590954      -17.9120578255       -6.7728550818  MEMB      85              0.0000000000
     11338        91  POPC      H6Y            -0.7273149634      -16.7212253092       -5.6874946068  MEMB      85              0.0000000000
     11339        91  POPC      C37             0.0566841043      -18.7386836567       -5.5172414185  MEMB      85              0.0000000000
     11340        91  POPC      H7X             1.0329577964      -18.4074028075       -5.1061766037  MEMB      85              0.0000000000
     11341        91  POPC      H7Y             0.2624168161      -19.6000507933       -6.1848176873  MEMB      85              0.0000000000
     11342        91  POPC      C38            -0.8439147327      -19.2605371191       -4.3844439298  MEMB      85              0.0000000000
     11343        91  POPC      H8X            -0.3914619378      -20.1846773744       -3.9640919263  MEMB      85              0.0000000000
     11344        91  POPC      H8Y            -1.8305802268      -19.5381055147       -4.8185637726  MEMB      85              0.0000000000
     11345        91  POPC      C39            -1.0568895679      -18.2702092483       -3.2366332254  MEMB      85              0.0000000000
     11346        91  POPC      H9X            -1.8576785982      -18.6474548084       -2.5627951094  MEMB      85              0.0000000000
     11347        91  POPC      H9Y            -1.4065597568      -17.3211002702       -3.6760738904  MEMB      85              0.0000000000
     11348        91  POPC      C310            0.1878775684      -17.9549096095       -2.3980715066  MEMB      85              0.0000000000
     11349        91  POPC      H10X           -0.0732031156      -17.0890623869       -1.7502153884  MEMB      85              0.0000000000
     11350        91  POPC      H10Y            1.0391482553      -17.6522316471       -3.0418534352  MEMB      85              0.0000000000
     11351        91  POPC      C311            0.5816057087      -19.1013956552       -1.4688955192  MEMB      85              0.0000000000
     11352        91  POPC      H11X            0.7602018852      -20.0278417917       -2.0494268828  MEMB      85              0.0000000000
     11353        91  POPC      H11Y           -0.3092227461      -19.2928468146       -0.8255017458  MEMB      85              0.0000000000
     11354        91  POPC      C312            1.7700180983      -18.7699528870       -0.5494390485  MEMB      85              0.0000000000
     11355        91  POPC      H12X            1.7715812455      -19.4600311542        0.3178527350  MEMB      85              0.0000000000
     11356        91  POPC      H12Y            1.6174772387      -17.7540597000       -0.1243864945  MEMB      85              0.0000000000
     11357        91  POPC      C313            3.1791425602      -18.8401123096       -1.1648374668  MEMB      85              0.0000000000
     11358        91  POPC      H13X            3.8918004219      -18.9556284004       -0.3176760793  MEMB      85              0.0000000000
     11359        91  POPC      H13Y            3.3929571344      -17.8616475387       -1.6460093181  MEMB      85              0.0000000000
     11360        91  POPC      C314            3.4672652489      -19.9818358636       -2.1545568047  MEMB      85              0.0000000000
     11361        91  POPC      H14X            2.6719650716      -20.7530421982       -2.1189021929  MEMB      85              0.0000000000
     11362        91  POPC      H14Y            4.4119069303      -20.4903721724       -1.8529532359  MEMB      85              0.0000000000
     11363        91  POPC      C315            3.6479127994      -19.4743896053       -3.5895878820  MEMB      85              0.0000000000
     11364        91  POPC      H15X            2.7628178722      -18.8654842051       -3.8732593702  MEMB      85              0.0000000000
     11365        91  POPC      H15Y            3.6961693932      -20.3446348684       -4.2802825566  MEMB      85              0.0000000000
     11366        91  POPC      C316            4.9210384688      -18.6523168319       -3.7828216407  MEMB      85              0.0000000000
     11367        91  POPC      H16X            4.9475826395      -17.7658085555       -3.1160194710  MEMB      85              0.0000000000
     11368        91  POPC      H16Y            5.0067616877      -18.3000867934       -4.8327892753  MEMB      85              0.0000000000
     11369        91  POPC      H16Z            5.8005997360      -19.2848342876       -3.5444313510  MEMB      85              0.0000000000
     11370        92  POPS      N              21.3692986746        2.9043679326      -21.7306386048  MEMB      86              0.0000000000
     11371        92  POPS      HN1            21.2605971778        2.0290572191      -22.2761096201  MEMB      86              0.0000000000
     11372        92  POPS      HN2            21.0899607266        3.7245905636      -22.3216929497  MEMB      86              0.0000000000
     11373        92  POPS      HN3            22.3421199424        2.9907649419      -21.3691346390  MEMB      86              0.0000000000
     11374        92  POPS      C12            20.3821530076        2.9307154701      -20.6123783256  MEMB      86              0.0000000000
     11375        92  POPS      H12A           19.8017932907        2.0194447154      -20.6454870863  MEMB      86              0.0000000000
     11376        92  POPS      C13            19.3891211713        4.0941370471      -20.8475920923  MEMB      86              0.0000000000
     11377        92  POPS      O13A           19.5602066297        4.8857443247      -21.8200210873  MEMB      86              0.0000000000
     11378        92  POPS      O13B           18.3903539202        4.1681987108      -20.0880255018  MEMB      86              0.0000000000
     11379        92  POPS      C11            21.1147707111        3.0031047869      -19.2286521765  MEMB      86              0.0000000000
     11380        92  POPS      H11A           20.6042685581        3.7661597350      -18.5998795693  MEMB      86              0.0000000000
     11381        92  POPS      H11B           22.1743069800        3.3330024213      -19.3211804347  MEMB      86              0.0000000000
     11382        92  POPS      P              21.7507824115        0.4471841973      -19.0044341058  MEMB      86              0.0000000000
     11383        92  POPS      O13            22.6488391619        0.7965889684      -20.1306930144  MEMB      86              0.0000000000
     11384        92  POPS      O14            20.7144202287       -0.5611045341      -19.3523140651  MEMB      86              0.0000000000
     11385        92  POPS      O12            21.0405559076        1.7686485076      -18.5255225936  MEMB      86              0.0000000000
     11386        92  POPS      O11            22.6296993953        0.0369977693      -17.7591662422  MEMB      86              0.0000000000
     11387        92  POPS      C1             24.0575039164        0.1708794967      -17.7499766215  MEMB      86              0.0000000000
     11388        92  POPS      HA             24.5031755351        0.5742043059      -18.6901382554  MEMB      86              0.0000000000
     11389        92  POPS      HB             24.4876376086       -0.8504117926      -17.6318549913  MEMB      86              0.0000000000
     11390        92  POPS      C2             24.6137239437        1.0260772995      -16.5615113948  MEMB      86              0.0000000000
     11391        92  POPS      HS             25.5771681838        0.5578298255      -16.2695434136  MEMB      86              0.0000000000
     11392        92  POPS      O21            23.7447572126        1.0794541199      -15.4205013603  MEMB      86              0.0000000000
     11393        92  POPS      C21            23.3925590838       -0.0703856470      -14.9046867267  MEMB      86              0.0000000000
     11394        92  POPS      O22            23.8723118421       -1.1616782243      -15.1652129289  MEMB      86              0.0000000000
     11395        92  POPS      C22            22.4275662235        0.2135618099      -13.7548414970  MEMB      86              0.0000000000
     11396        92  POPS      H2R            21.7455844675        1.0378071952      -14.0431859590  MEMB      86              0.0000000000
     11397        92  POPS      H2S            23.0577816952        0.5752191965      -12.9145726187  MEMB      86              0.0000000000
     11398        92  POPS      C3             24.9461831870        2.5014062047      -16.9589502433  MEMB      86              0.0000000000
     11399        92  POPS      HX             25.3935295075        2.4961152517      -17.9793523285  MEMB      86              0.0000000000
     11400        92  POPS      HY             25.7584869707        2.8527356569      -16.2826913691  MEMB      86              0.0000000000
     11401        92  POPS      O31            23.8015202029        3.3928650643      -16.9354934365  MEMB      86              0.0000000000
     11402        92  POPS      C31            23.5693246309        3.9309943457      -15.7300866079  MEMB      86              0.0000000000
     11403        92  POPS      O32            24.2363950117        3.7483341113      -14.7292073525  MEMB      86              0.0000000000
     11404        92  POPS      C32            22.3380621913        4.8211750123      -15.7842733012  MEMB      86              0.0000000000
     11405        92  POPS      H2X            21.5072707075        4.2567936634      -16.2562742161  MEMB      86              0.0000000000
     11406        92  POPS      H2Y            22.5886575180        5.6971294543      -16.4184732365  MEMB      86              0.0000000000
     11407        92  POPS      C23            21.6193881242       -1.0206515141      -13.3005053593  MEMB      86              0.0000000000
     11408        92  POPS      H3R            22.1850223925       -1.9653387291      -13.4736597890  MEMB      86              0.0000000000
     11409        92  POPS      H3S            20.6847523058       -1.0874239251      -13.9036243832  MEMB      86              0.0000000000
     11410        92  POPS      C24            21.2855807130       -0.9363574663      -11.8047353906  MEMB      86              0.0000000000
     11411        92  POPS      H4R            20.4088740606       -1.5796613282      -11.5848609113  MEMB      86              0.0000000000
     11412        92  POPS      H4S            21.0046534354        0.1080156639      -11.5476512765  MEMB      86              0.0000000000
     11413        92  POPS      C25            22.4442524876       -1.4224196283      -10.9199143252  MEMB      86              0.0000000000
     11414        92  POPS      H5R            23.2991652482       -0.7145440974      -10.9746966213  MEMB      86              0.0000000000
     11415        92  POPS      H5S            22.7858064489       -2.4034449818      -11.3241977585  MEMB      86              0.0000000000
     11416        92  POPS      C26            22.0313454952       -1.6509370861       -9.4594958545  MEMB      86              0.0000000000
     11417        92  POPS      H6R            22.8433483452       -2.1920551305       -8.9263136091  MEMB      86              0.0000000000
     11418        92  POPS      H6S            21.1380535817       -2.3150559177       -9.4566769747  MEMB      86              0.0000000000
     11419        92  POPS      C27            21.7214911867       -0.3522241439       -8.7034396749  MEMB      86              0.0000000000
     11420        92  POPS      H7R            21.0968847623        0.2982064322       -9.3476454082  MEMB      86              0.0000000000
     11421        92  POPS      H7S            22.6730834796        0.1984453582       -8.5303219643  MEMB      86              0.0000000000
     11422        92  POPS      C28            21.0175686629       -0.5662704524       -7.3452399722  MEMB      86              0.0000000000
     11423        92  POPS      H8R            20.8779314240        0.4337302931       -6.8778048049  MEMB      86              0.0000000000
     11424        92  POPS      H8S            21.7184095731       -1.1277560522       -6.6862852271  MEMB      86              0.0000000000
     11425        92  POPS      C29            19.6913565398       -1.2869155392       -7.3990447272  MEMB      86              0.0000000000
     11426        92  POPS      H91            19.6873434333       -2.2862605121       -6.9371137420  MEMB      86              0.0000000000
     11427        92  POPS      C210           18.5441552188       -0.8363072802       -7.9408906944  MEMB      86              0.0000000000
     11428        92  POPS      H101           17.6574513286       -1.4860664988       -7.8946109305  MEMB      86              0.0000000000
     11429        92  POPS      C211           18.3135839949        0.4905396603       -8.6220549063  MEMB      86              0.0000000000
     11430        92  POPS      H11R           17.7873671846        0.3193530674       -9.5876756146  MEMB      86              0.0000000000
     11431        92  POPS      H11S           19.2655270437        1.0065836360       -8.8697947992  MEMB      86              0.0000000000
     11432        92  POPS      C212           17.4915018368        1.4871721471       -7.7842412464  MEMB      86              0.0000000000
     11433        92  POPS      H12R           16.5123192839        1.0432123673       -7.5093776776  MEMB      86              0.0000000000
     11434        92  POPS      H12S           17.2851416672        2.3761838607       -8.4240881987  MEMB      86              0.0000000000
     11435        92  POPS      C213           18.2246100088        1.9765917235       -6.5228105274  MEMB      86              0.0000000000
     11436        92  POPS      H13R           19.2595764122        2.2634813324       -6.8024757039  MEMB      86              0.0000000000
     11437        92  POPS      H13S           18.3028807174        1.1450639634       -5.7894936565  MEMB      86              0.0000000000
     11438        92  POPS      C214           17.5369951945        3.1888908168       -5.8786722540  MEMB      86              0.0000000000
     11439        92  POPS      H14R           16.5542399070        2.8618194793       -5.4781841400  MEMB      86              0.0000000000
     11440        92  POPS      H14S           17.3358337073        3.9507338684       -6.6647534972  MEMB      86              0.0000000000
     11441        92  POPS      C215           18.3367621040        3.8696701374       -4.7539915368  MEMB      86              0.0000000000
     11442        92  POPS      H15R           17.6803927861        4.6402748605       -4.2892557587  MEMB      86              0.0000000000
     11443        92  POPS      H15S           19.2162366737        4.3943626008       -5.1901771220  MEMB      86              0.0000000000
     11444        92  POPS      C216           18.8283277002        2.9103919352       -3.6606915821  MEMB      86              0.0000000000
     11445        92  POPS      H16R           19.7649282402        2.4170215208       -4.0051902490  MEMB      86              0.0000000000
     11446        92  POPS      H16S           18.0713378278        2.1116158156       -3.5095183598  MEMB      86              0.0000000000
     11447        92  POPS      C217           19.0684714368        3.5899244736       -2.3053822511  MEMB      86              0.0000000000
     11448        92  POPS      H17R           19.5042706793        2.8352467672       -1.6097348257  MEMB      86              0.0000000000
     11449        92  POPS      H17S           18.0847933769        3.9003533210       -1.8841730747  MEMB      86              0.0000000000
     11450        92  POPS      C218           19.9897335744        4.8085460029       -2.3608889290  MEMB      86              0.0000000000
     11451        92  POPS      H18R           19.5259373949        5.6374932396       -2.9369931977  MEMB      86              0.0000000000
     11452        92  POPS      H18S           20.9539565208        4.5484789876       -2.8450873763  MEMB      86              0.0000000000
     11453        92  POPS      H18T           20.2056851936        5.1694750993       -1.3328204458  MEMB      86              0.0000000000
     11454        92  POPS      C33            21.9390906458        5.3115792155      -14.3694982187  MEMB      86              0.0000000000
     11455        92  POPS      H3X            21.1000393184        6.0334283379      -14.5000609369  MEMB      86              0.0000000000
     11456        92  POPS      H3Y            22.7805815985        5.8669069785      -13.8956205160  MEMB      86              0.0000000000
     11457        92  POPS      C34            21.4636317716        4.1947381220      -13.4199524241  MEMB      86              0.0000000000
     11458        92  POPS      H4X            22.3064307731        3.5222082508      -13.1474706052  MEMB      86              0.0000000000
     11459        92  POPS      H4Y            20.7120203013        3.5796380710      -13.9683156526  MEMB      86              0.0000000000
     11460        92  POPS      C35            20.8076455892        4.7627330966      -12.1514799208  MEMB      86              0.0000000000
     11461        92  POPS      H5X            19.7973632069        4.3094224026      -12.0272182849  MEMB      86              0.0000000000
     11462        92  POPS      H5Y            20.6798046054        5.8615861872      -12.2891857316  MEMB      86              0.0000000000
     11463        92  POPS      C36            21.5706129346        4.5891639924      -10.8378111476  MEMB      86              0.0000000000
     11464        92  POPS      H6X            22.6098203687        4.9704588327      -10.9530693684  MEMB      86              0.0000000000
     11465        92  POPS      H6Y            21.6202849283        3.5119946432      -10.5680430100  MEMB      86              0.0000000000
     11466        92  POPS      C37            20.8533619298        5.3918574700       -9.7400204757  MEMB      86              0.0000000000
     11467        92  POPS      H7X            19.8216800450        4.9954420227       -9.6081299127  MEMB      86              0.0000000000
     11468        92  POPS      H7Y            20.7622059035        6.4474518070      -10.0864695066  MEMB      86              0.0000000000
     11469        92  POPS      C38            21.5742854784        5.4024205979       -8.3915560624  MEMB      86              0.0000000000
     11470        92  POPS      H8X            21.0437665844        6.1016700662       -7.7045193753  MEMB      86              0.0000000000
     11471        92  POPS      H8Y            22.6081215458        5.7854783863       -8.5394766449  MEMB      86              0.0000000000
     11472        92  POPS      C39            21.6421073052        4.0294666426       -7.7302822264  MEMB      86              0.0000000000
     11473        92  POPS      H9X            22.2174599626        3.3296238023       -8.3761795006  MEMB      86              0.0000000000
     11474        92  POPS      H9Y            20.6131380125        3.6219709787       -7.6300659195  MEMB      86              0.0000000000
     11475        92  POPS      C310           22.3022106994        4.0991590577       -6.3514258529  MEMB      86              0.0000000000
     11476        92  POPS      H10X           21.7013661711        4.7517396197       -5.6793541445  MEMB      86              0.0000000000
     11477        92  POPS      H10Y           23.3122518201        4.5565982955       -6.4537890464  MEMB      86              0.0000000000
     11478        92  POPS      C311           22.4370907382        2.7085942534       -5.7359639942  MEMB      86              0.0000000000
     11479        92  POPS      H11X           23.0071274915        2.0651833118       -6.4447324233  MEMB      86              0.0000000000
     11480        92  POPS      H11Y           21.4268648488        2.2580852141       -5.6186058205  MEMB      86              0.0000000000
     11481        92  POPS      C312           23.1506621340        2.7100809048       -4.3823225603  MEMB      86              0.0000000000
     11482        92  POPS      H12X           22.5354309528        3.2431777403       -3.6272398228  MEMB      86              0.0000000000
     11483        92  POPS      H12Y           24.1105719481        3.2622979459       -4.4789846354  MEMB      86              0.0000000000
     11484        92  POPS      C313           23.4314733345        1.2758365382       -3.9220114616  MEMB      86              0.0000000000
     11485        92  POPS      H13X           23.9502373210        0.7536123557       -4.7567615695  MEMB      86              0.0000000000
     11486        92  POPS      H13Y           22.4667350240        0.7495344514       -3.7456510756  MEMB      86              0.0000000000
     11487        92  POPS      C314           24.3089722542        1.1800182248       -2.6673243693  MEMB      86              0.0000000000
     11488        92  POPS      H14X           25.2724855671        1.7099780753       -2.8289718906  MEMB      86              0.0000000000
     11489        92  POPS      H14Y           24.5572652487        0.1069576886       -2.5047527953  MEMB      86              0.0000000000
     11490        92  POPS      C315           23.6267705809        1.7015433737       -1.3981530616  MEMB      86              0.0000000000
     11491        92  POPS      H15X           22.5422175739        1.8566644412       -1.5999637690  MEMB      86              0.0000000000
     11492        92  POPS      H15Y           24.0501462999        2.6972500868       -1.1376439055  MEMB      86              0.0000000000
     11493        92  POPS      C316           23.7706662346        0.7399948601       -0.2146092863  MEMB      86              0.0000000000
     11494        92  POPS      H16X           24.8409100347        0.5199059242       -0.0160399364  MEMB      86              0.0000000000
     11495        92  POPS      H16Y           23.2443446626       -0.2166871252       -0.4265974201  MEMB      86              0.0000000000
     11496        92  POPS      H16Z           23.3338359734        1.1865495872        0.7013642381  MEMB      86              0.0000000000
     11497        93  POPC      N              19.8063202739       -6.9728576176      -21.4125643792  MEMB      87              0.0000000000
     11498        93  POPC      C12            20.2764621063       -8.3524380278      -21.0222785207  MEMB      87              0.0000000000
     11499        93  POPC      H12A           21.1578139514       -8.6395813818      -21.5831586740  MEMB      87              0.0000000000
     11500        93  POPC      H12B           19.4908265332       -9.0546983331      -21.2883956242  MEMB      87              0.0000000000
     11501        93  POPC      C13            20.4164091164       -5.9261745483      -20.5122302328  MEMB      87              0.0000000000
     11502        93  POPC      H13A           21.4242300393       -5.6728490826      -20.7843688029  MEMB      87              0.0000000000
     11503        93  POPC      H13B           19.8023173289       -5.0326227660      -20.4893085475  MEMB      87              0.0000000000
     11504        93  POPC      H13C           20.4073692114       -6.2757968954      -19.4743075949  MEMB      87              0.0000000000
     11505        93  POPC      C14            20.0184250618       -6.6091837566      -22.8343761247  MEMB      87              0.0000000000
     11506        93  POPC      H14A           21.0450127635       -6.3483051230      -23.0372352021  MEMB      87              0.0000000000
     11507        93  POPC      H14B           19.6960769138       -7.3756643771      -23.5320221238  MEMB      87              0.0000000000
     11508        93  POPC      H14C           19.4425039570       -5.7101430407      -23.0840372489  MEMB      87              0.0000000000
     11509        93  POPC      C15            18.3441529755       -6.9281603176      -21.1422456376  MEMB      87              0.0000000000
     11510        93  POPC      H15A           17.9433781240       -5.9487883474      -21.3489780167  MEMB      87              0.0000000000
     11511        93  POPC      H15B           18.2400167243       -7.1569336136      -20.0844656613  MEMB      87              0.0000000000
     11512        93  POPC      H15C           17.7837860204       -7.6902346826      -21.6701557039  MEMB      87              0.0000000000
     11513        93  POPC      C11            20.5618076508       -8.5710586223      -19.5154975108  MEMB      87              0.0000000000
     11514        93  POPC      H11A           21.5466751157       -8.0952452715      -19.2861320421  MEMB      87              0.0000000000
     11515        93  POPC      H11B           20.6847233818       -9.6646364386      -19.3614690420  MEMB      87              0.0000000000
     11516        93  POPC      P              19.7673507057       -7.4213620396      -17.2739482858  MEMB      87              0.0000000000
     11517        93  POPC      O13            21.1927264876       -7.0378936548      -17.2184728972  MEMB      87              0.0000000000
     11518        93  POPC      O14            19.2651879750       -8.3615827446      -16.2498710279  MEMB      87              0.0000000000
     11519        93  POPC      O12            19.4912409124       -8.0902783006      -18.6927658900  MEMB      87              0.0000000000
     11520        93  POPC      O11            18.8686985762       -6.1151924566      -17.3363268672  MEMB      87              0.0000000000
     11521        93  POPC      C1             17.5400057659       -6.0443501612      -17.8444899852  MEMB      87              0.0000000000
     11522        93  POPC      HA             17.3071503944       -6.8867835243      -18.5315432068  MEMB      87              0.0000000000
     11523        93  POPC      HB             17.4435958570       -5.0959845482      -18.4196377870  MEMB      87              0.0000000000
     11524        93  POPC      C2             16.4032957534       -6.0042217575      -16.7683278891  MEMB      87              0.0000000000
     11525        93  POPC      HS             15.4454390601       -5.8813805133      -17.3170019898  MEMB      87              0.0000000000
     11526        93  POPC      O21            16.6218414809       -4.9008932858      -15.8689547492  MEMB      87              0.0000000000
     11527        93  POPC      C21            15.5785547659       -4.4167533523      -15.2033506243  MEMB      87              0.0000000000
     11528        93  POPC      O22            14.4803560636       -4.9242814536      -15.1152799096  MEMB      87              0.0000000000
     11529        93  POPC      C22            15.9422679676       -3.0956010039      -14.5466570598  MEMB      87              0.0000000000
     11530        93  POPC      H2R            15.0856028697       -2.4137417574      -14.7190710765  MEMB      87              0.0000000000
     11531        93  POPC      H2S            16.8227620185       -2.6736580064      -15.0719383770  MEMB      87              0.0000000000
     11532        93  POPC      C3             16.3262455431       -7.3707891949      -16.0214358750  MEMB      87              0.0000000000
     11533        93  POPC      HX             16.6722248046       -8.1472914642      -16.7463101188  MEMB      87              0.0000000000
     11534        93  POPC      HY             15.2552568335       -7.5660061284      -15.8414307018  MEMB      87              0.0000000000
     11535        93  POPC      O31            17.0663353738       -7.4663154040      -14.7818966874  MEMB      87              0.0000000000
     11536        93  POPC      C31            16.9580379028       -8.7047082524      -14.3043441120  MEMB      87              0.0000000000
     11537        93  POPC      O32            16.1863880198       -9.5521386575      -14.7340166632  MEMB      87              0.0000000000
     11538        93  POPC      C32            17.8346119614       -8.8747507145      -13.0642639703  MEMB      87              0.0000000000
     11539        93  POPC      H2X            17.8687788557       -7.9079529828      -12.5227501152  MEMB      87              0.0000000000
     11540        93  POPC      H2Y            18.8576057140       -9.1156969788      -13.4234469512  MEMB      87              0.0000000000
     11541        93  POPC      C23            16.2156811443       -3.2885723592      -13.0487703563  MEMB      87              0.0000000000
     11542        93  POPC      H3R            15.3379590660       -3.7441503819      -12.5370104821  MEMB      87              0.0000000000
     11543        93  POPC      H3S            16.3858234356       -2.2908430326      -12.5842296072  MEMB      87              0.0000000000
     11544        93  POPC      C24            17.4522471075       -4.1619566766      -12.8544611998  MEMB      87              0.0000000000
     11545        93  POPC      H4R            17.8803690783       -4.4088472888      -13.8549163251  MEMB      87              0.0000000000
     11546        93  POPC      H4S            17.1806924029       -5.1309638828      -12.3853206157  MEMB      87              0.0000000000
     11547        93  POPC      C25            18.5471203122       -3.4673594063      -12.0555438003  MEMB      87              0.0000000000
     11548        93  POPC      H5R            18.1352330466       -3.0481363860      -11.1100735417  MEMB      87              0.0000000000
     11549        93  POPC      H5S            18.9290605314       -2.6257602916      -12.6761378933  MEMB      87              0.0000000000
     11550        93  POPC      C26            19.6868818440       -4.4292149025      -11.7279318246  MEMB      87              0.0000000000
     11551        93  POPC      H6R            19.3045757726       -5.1577962552      -10.9782082588  MEMB      87              0.0000000000
     11552        93  POPC      H6S            20.5185255106       -3.8615094646      -11.2559239790  MEMB      87              0.0000000000
     11553        93  POPC      C27            20.2240157329       -5.1844407659      -12.9570123229  MEMB      87              0.0000000000
     11554        93  POPC      H7R            20.5561037431       -4.4412515972      -13.7182810193  MEMB      87              0.0000000000
     11555        93  POPC      H7S            19.4238884917       -5.8007255809      -13.4288870388  MEMB      87              0.0000000000
     11556        93  POPC      C28            21.4063077885       -6.1035213822      -12.6280422547  MEMB      87              0.0000000000
     11557        93  POPC      H8R            22.2475970848       -5.4847380652      -12.2422400555  MEMB      87              0.0000000000
     11558        93  POPC      H8S            21.7590018592       -6.5715626421      -13.5769155921  MEMB      87              0.0000000000
     11559        93  POPC      C29            20.9804564309       -7.1718854990      -11.6570165461  MEMB      87              0.0000000000
     11560        93  POPC      H91            20.4632263218       -8.0269679648      -12.1162910816  MEMB      87              0.0000000000
     11561        93  POPC      C210           21.1638015213       -7.1575123198      -10.3269963145  MEMB      87              0.0000000000
     11562        93  POPC      H101           20.8467362306       -8.0329854883       -9.7425399935  MEMB      87              0.0000000000
     11563        93  POPC      C211           21.8318200188       -6.0612620030       -9.5327653309  MEMB      87              0.0000000000
     11564        93  POPC      H11R           21.9167947482       -5.1084345463      -10.0988362140  MEMB      87              0.0000000000
     11565        93  POPC      H11S           22.8679389599       -6.3598809613       -9.2807619076  MEMB      87              0.0000000000
     11566        93  POPC      C212           21.1102862216       -5.7773945350       -8.2051539357  MEMB      87              0.0000000000
     11567        93  POPC      H12R           20.8865354078       -6.7474890214       -7.7072183628  MEMB      87              0.0000000000
     11568        93  POPC      H12S           20.1448226529       -5.2591083843       -8.3971095066  MEMB      87              0.0000000000
     11569        93  POPC      C213           21.9780593346       -4.9303623624       -7.2625211678  MEMB      87              0.0000000000
     11570        93  POPC      H13R           22.1626356398       -3.9399323581       -7.7322207881  MEMB      87              0.0000000000
     11571        93  POPC      H13S           22.9698517718       -5.4240885442       -7.1429792438  MEMB      87              0.0000000000
     11572        93  POPC      C214           21.3717750623       -4.7269559776       -5.8670611182  MEMB      87              0.0000000000
     11573        93  POPC      H14R           20.4250485987       -4.1497746531       -5.9511785355  MEMB      87              0.0000000000
     11574        93  POPC      H14S           22.0904121725       -4.1197380486       -5.2716327567  MEMB      87              0.0000000000
     11575        93  POPC      C215           21.0803426283       -6.0450312726       -5.1331095695  MEMB      87              0.0000000000
     11576        93  POPC      H15R           21.9692600097       -6.7078836602       -5.1795848741  MEMB      87              0.0000000000
     11577        93  POPC      H15S           20.2547088091       -6.5741678753       -5.6568868911  MEMB      87              0.0000000000
     11578        93  POPC      C216           20.6767204344       -5.8632499891       -3.6648650664  MEMB      87              0.0000000000
     11579        93  POPC      H16R           20.3101054584       -6.8443146098       -3.2835501148  MEMB      87              0.0000000000
     11580        93  POPC      H16S           19.8351838556       -5.1399703485       -3.5945035408  MEMB      87              0.0000000000
     11581        93  POPC      C217           21.8294257530       -5.4063515223       -2.7646596271  MEMB      87              0.0000000000
     11582        93  POPC      H17R           22.1901879238       -4.4067234746       -3.0945207825  MEMB      87              0.0000000000
     11583        93  POPC      H17S           22.6759078647       -6.1223041906       -2.8795653876  MEMB      87              0.0000000000
     11584        93  POPC      C218           21.4265909261       -5.3390072237       -1.2920286734  MEMB      87              0.0000000000
     11585        93  POPC      H18R           21.0664782353       -6.3344266773       -0.9536244932  MEMB      87              0.0000000000
     11586        93  POPC      H18S           20.6067805413       -4.6026589373       -1.1496531679  MEMB      87              0.0000000000
     11587        93  POPC      H18T           22.2878784998       -5.0380746385       -0.6578742505  MEMB      87              0.0000000000
     11588        93  POPC      C33            17.2878700317      -10.0035465600      -12.1581174243  MEMB      87              0.0000000000
     11589        93  POPC      H3X            17.3660131713      -10.9624436718      -12.7243391733  MEMB      87              0.0000000000
     11590        93  POPC      H3Y            16.2128618641       -9.8286300382      -11.9338845828  MEMB      87              0.0000000000
     11591        93  POPC      C34            18.0250314697      -10.1540008361      -10.8209489711  MEMB      87              0.0000000000
     11592        93  POPC      H4X            19.1225601447      -10.1123998618      -10.9995495762  MEMB      87              0.0000000000
     11593        93  POPC      H4Y            17.7755233618      -11.1536248067      -10.3932178653  MEMB      87              0.0000000000
     11594        93  POPC      C35            17.6287117623       -9.1114395594       -9.7712941010  MEMB      87              0.0000000000
     11595        93  POPC      H5X            16.5385544146       -9.2037232032       -9.5629865201  MEMB      87              0.0000000000
     11596        93  POPC      H5Y            17.8159092188       -8.0895868941      -10.1710701713  MEMB      87              0.0000000000
     11597        93  POPC      C36            18.4104501870       -9.3006193006       -8.4652536111  MEMB      87              0.0000000000
     11598        93  POPC      H6X            19.4947016844       -9.2028407606       -8.6891506246  MEMB      87              0.0000000000
     11599        93  POPC      H6Y            18.2461359384      -10.3298056018       -8.0783249118  MEMB      87              0.0000000000
     11600        93  POPC      C37            18.0367286373       -8.2946572431       -7.3683968256  MEMB      87              0.0000000000
     11601        93  POPC      H7X            17.9195821742       -7.2806432485       -7.8093606630  MEMB      87              0.0000000000
     11602        93  POPC      H7Y            18.8831583306       -8.2595347580       -6.6445381034  MEMB      87              0.0000000000
     11603        93  POPC      C38            16.7640782259       -8.7038026728       -6.6100309761  MEMB      87              0.0000000000
     11604        93  POPC      H8X            16.9392945547       -9.6915093161       -6.1299786236  MEMB      87              0.0000000000
     11605        93  POPC      H8Y            15.9396700383       -8.8442552983       -7.3430089233  MEMB      87              0.0000000000
     11606        93  POPC      C39            16.3095206691       -7.7122659641       -5.5251308258  MEMB      87              0.0000000000
     11607        93  POPC      H9X            15.5850882868       -8.2246674893       -4.8528520895  MEMB      87              0.0000000000
     11608        93  POPC      H9Y            15.7697578909       -6.8727695700       -6.0093910458  MEMB      87              0.0000000000
     11609        93  POPC      C310           17.4538199620       -7.1292399151       -4.6854965766  MEMB      87              0.0000000000
     11610        93  POPC      H10X           18.0526270031       -6.4508075318       -5.3352404305  MEMB      87              0.0000000000
     11611        93  POPC      H10Y           18.1247152995       -7.9495186918       -4.3466075246  MEMB      87              0.0000000000
     11612        93  POPC      C311           16.9673691196       -6.3271340060       -3.4690262998  MEMB      87              0.0000000000
     11613        93  POPC      H11X           15.8680188399       -6.1663388965       -3.5309649521  MEMB      87              0.0000000000
     11614        93  POPC      H11Y           17.4437311537       -5.3196219397       -3.4980362374  MEMB      87              0.0000000000
     11615        93  POPC      C312           17.3227106658       -6.9770326882       -2.1211471741  MEMB      87              0.0000000000
     11616        93  POPC      H12X           17.0746974566       -6.2509848255       -1.3170352597  MEMB      87              0.0000000000
     11617        93  POPC      H12Y           18.4187934228       -7.1536165328       -2.0702140465  MEMB      87              0.0000000000
     11618        93  POPC      C313           16.5833073062       -8.2956304031       -1.8483087892  MEMB      87              0.0000000000
     11619        93  POPC      H13X           16.8945834226       -9.0511631131       -2.6025099492  MEMB      87              0.0000000000
     11620        93  POPC      H13Y           15.4924414071       -8.1378259921       -1.9887423734  MEMB      87              0.0000000000
     11621        93  POPC      C314           16.8361372670       -8.8608361080       -0.4378123584  MEMB      87              0.0000000000
     11622        93  POPC      H14X           17.9086636224       -9.1441587747       -0.3492136532  MEMB      87              0.0000000000
     11623        93  POPC      H14Y           16.2327133262       -9.7899419594       -0.3191802122  MEMB      87              0.0000000000
     11624        93  POPC      C315           16.4930789169       -7.9014236161        0.7162043433  MEMB      87              0.0000000000
     11625        93  POPC      H15X           17.2419090064       -7.0764706826        0.7417176158  MEMB      87              0.0000000000
     11626        93  POPC      H15Y           16.5950561842       -8.4591905185        1.6749168914  MEMB      87              0.0000000000
     11627        93  POPC      C316           15.0930673588       -7.2901899674        0.6280677557  MEMB      87              0.0000000000
     11628        93  POPC      H16X           15.0003703930       -6.6646344196       -0.2823868113  MEMB      87              0.0000000000
     11629        93  POPC      H16Y           14.8903641687       -6.6289866251        1.4944977904  MEMB      87              0.0000000000
     11630        93  POPC      H16Z           14.3176577955       -8.0828192525        0.5973097301  MEMB      87              0.0000000000
     11631        94  POPC      N              -5.0240699755       21.8987246241      -20.8178386865  MEMB      88              0.0000000000
     11632        94  POPC      C12            -4.6109461509       22.3323547457      -19.4223979463  MEMB      88              0.0000000000
     11633        94  POPC      H12A           -3.6624172816       22.8485080637      -19.5090151361  MEMB      88              0.0000000000
     11634        94  POPC      H12B           -4.4339685970       21.4198177983      -18.8326286382  MEMB      88              0.0000000000
     11635        94  POPC      C13            -5.5450326979       23.0281821838      -21.6505557153  MEMB      88              0.0000000000
     11636        94  POPC      H13A           -6.4210546868       23.4541909247      -21.1715224218  MEMB      88              0.0000000000
     11637        94  POPC      H13B           -4.7835469198       23.7857358596      -21.7962394468  MEMB      88              0.0000000000
     11638        94  POPC      H13C           -5.8578991229       22.6744006903      -22.6294472510  MEMB      88              0.0000000000
     11639        94  POPC      C14            -3.8764564008       21.2293240847      -21.5172725097  MEMB      88              0.0000000000
     11640        94  POPC      H14A           -4.2160615070       20.7587953233      -22.4376363042  MEMB      88              0.0000000000
     11641        94  POPC      H14B           -3.0689067019       21.9274681863      -21.7481062174  MEMB      88              0.0000000000
     11642        94  POPC      H14C           -3.4751910547       20.4272471004      -20.8996865023  MEMB      88              0.0000000000
     11643        94  POPC      C15            -6.0862852224       20.8653488117      -20.6644953491  MEMB      88              0.0000000000
     11644        94  POPC      H15A           -5.7184206451       20.0248192902      -20.0630240751  MEMB      88              0.0000000000
     11645        94  POPC      H15B           -6.4305392923       20.4927466831      -21.6156284650  MEMB      88              0.0000000000
     11646        94  POPC      H15C           -6.9142491655       21.2641317068      -20.0798024172  MEMB      88              0.0000000000
     11647        94  POPC      C11            -5.6125484918       23.1613961952      -18.5503156932  MEMB      88              0.0000000000
     11648        94  POPC      H11A           -5.8260222822       24.1165259913      -19.0693432199  MEMB      88              0.0000000000
     11649        94  POPC      H11B           -5.1140587522       23.4229609703      -17.5892262465  MEMB      88              0.0000000000
     11650        94  POPC      P              -6.8675162781       21.1542722653      -17.4014933343  MEMB      88              0.0000000000
     11651        94  POPC      O13            -5.4664174715       20.6755323047      -17.3517493753  MEMB      88              0.0000000000
     11652        94  POPC      O14            -7.8596634818       20.2725205391      -18.0559971505  MEMB      88              0.0000000000
     11653        94  POPC      O12            -6.8540777084       22.5063999691      -18.2713262617  MEMB      88              0.0000000000
     11654        94  POPC      O11            -7.4065542466       21.5220375890      -15.9703507475  MEMB      88              0.0000000000
     11655        94  POPC      C1             -8.6832571694       22.1460805789      -15.7879810707  MEMB      88              0.0000000000
     11656        94  POPC      HA             -9.0044490510       21.9658473874      -14.7382387850  MEMB      88              0.0000000000
     11657        94  POPC      HB             -9.4641594954       21.7133343382      -16.4531012728  MEMB      88              0.0000000000
     11658        94  POPC      C2             -8.5802906484       23.6776309682      -15.9592021172  MEMB      88              0.0000000000
     11659        94  POPC      HS             -8.5548550130       23.8815260444      -17.0564722401  MEMB      88              0.0000000000
     11660        94  POPC      O21            -7.3582295172       24.0399945934      -15.3369894673  MEMB      88              0.0000000000
     11661        94  POPC      C21            -6.7465673791       25.0777472415      -15.7563629284  MEMB      88              0.0000000000
     11662        94  POPC      O22            -7.0994761564       25.8251266886      -16.6554019699  MEMB      88              0.0000000000
     11663        94  POPC      C22            -5.3897394225       25.0658498288      -15.0342132521  MEMB      88              0.0000000000
     11664        94  POPC      H2R            -4.8899644328       26.0270498218      -15.2471098490  MEMB      88              0.0000000000
     11665        94  POPC      H2S            -4.7942358261       24.2464957948      -15.4817602903  MEMB      88              0.0000000000
     11666        94  POPC      C3             -9.7390774287       24.4904284949      -15.3307209326  MEMB      88              0.0000000000
     11667        94  POPC      HX            -10.6921617953       24.0155063068      -15.6505742153  MEMB      88              0.0000000000
     11668        94  POPC      HY             -9.7334576554       25.5177511402      -15.7658095713  MEMB      88              0.0000000000
     11669        94  POPC      O31            -9.6720746873       24.4954049761      -13.8870376937  MEMB      88              0.0000000000
     11670        94  POPC      C31            -9.1226714199       25.5806783331      -13.3299018229  MEMB      88              0.0000000000
     11671        94  POPC      O32            -8.6887134022       26.5500852731      -13.9221240094  MEMB      88              0.0000000000
     11672        94  POPC      C32            -9.2086362540       25.4441889189      -11.8041331097  MEMB      88              0.0000000000
     11673        94  POPC      H2X            -9.2168958499       24.3564941584      -11.6135114854  MEMB      88              0.0000000000
     11674        94  POPC      H2Y           -10.1963247396       25.8637326541      -11.5150894199  MEMB      88              0.0000000000
     11675        94  POPC      C23            -5.4946672252       24.8076732680      -13.5041187175  MEMB      88              0.0000000000
     11676        94  POPC      H3R            -6.3428387330       25.3959773171      -13.0946784934  MEMB      88              0.0000000000
     11677        94  POPC      H3S            -4.5714761219       25.1765031651      -13.0053288764  MEMB      88              0.0000000000
     11678        94  POPC      C24            -5.6570376342       23.3202712755      -13.1223789730  MEMB      88              0.0000000000
     11679        94  POPC      H4R            -6.2855192232       22.7774963984      -13.8597686697  MEMB      88              0.0000000000
     11680        94  POPC      H4S            -6.1840583228       23.2333487780      -12.1496487405  MEMB      88              0.0000000000
     11681        94  POPC      C25            -4.3291960380       22.5637944706      -13.0135298904  MEMB      88              0.0000000000
     11682        94  POPC      H5R            -3.8461605540       22.8247807792      -12.0471461683  MEMB      88              0.0000000000
     11683        94  POPC      H5S            -3.6519264201       22.8906313606      -13.8293523759  MEMB      88              0.0000000000
     11684        94  POPC      C26            -4.4998932010       21.0401221240      -13.1117065566  MEMB      88              0.0000000000
     11685        94  POPC      H6R            -3.5077481724       20.5780764726      -12.9164934293  MEMB      88              0.0000000000
     11686        94  POPC      H6S            -4.7846884126       20.7586705501      -14.1538996641  MEMB      88              0.0000000000
     11687        94  POPC      C27            -5.5657406011       20.4767188741      -12.1524835635  MEMB      88              0.0000000000
     11688        94  POPC      H7R            -6.5203895050       20.3976283710      -12.7232604276  MEMB      88              0.0000000000
     11689        94  POPC      H7S            -5.7345062284       21.1882603359      -11.3130162201  MEMB      88              0.0000000000
     11690        94  POPC      C28            -5.2122879162       19.0977453085      -11.5681779212  MEMB      88              0.0000000000
     11691        94  POPC      H8R            -4.9275205790       18.4296647180      -12.4124134121  MEMB      88              0.0000000000
     11692        94  POPC      H8S            -6.1304945276       18.6658857014      -11.1143820497  MEMB      88              0.0000000000
     11693        94  POPC      C29            -4.0827479656       19.2235479221      -10.5742002362  MEMB      88              0.0000000000
     11694        94  POPC      H91            -3.1144133853       19.4916259544      -11.0232068022  MEMB      88              0.0000000000
     11695        94  POPC      C210           -4.1329680590       19.0448113459       -9.2423270383  MEMB      88              0.0000000000
     11696        94  POPC      H101           -3.2057860266       19.1815336137       -8.6648676337  MEMB      88              0.0000000000
     11697        94  POPC      C211           -5.3355153333       18.6707463897       -8.4170404828  MEMB      88              0.0000000000
     11698        94  POPC      H11R           -5.1255426161       17.7050646007       -7.9082079937  MEMB      88              0.0000000000
     11699        94  POPC      H11S           -6.2446093062       18.5301364575       -9.0413943751  MEMB      88              0.0000000000
     11700        94  POPC      C212           -5.6866841420       19.7023074129       -7.3375256414  MEMB      88              0.0000000000
     11701        94  POPC      H12R           -5.9981687576       20.6532449341       -7.8254467575  MEMB      88              0.0000000000
     11702        94  POPC      H12S           -4.7879167955       19.9210579478       -6.7175680795  MEMB      88              0.0000000000
     11703        94  POPC      C213           -6.8133627614       19.2286515314       -6.4013121891  MEMB      88              0.0000000000
     11704        94  POPC      H13R           -6.5012060685       18.2945818729       -5.8876450183  MEMB      88              0.0000000000
     11705        94  POPC      H13S           -7.7328262546       19.0089899237       -6.9874991568  MEMB      88              0.0000000000
     11706        94  POPC      C214           -7.1069137977       20.3078041548       -5.3578717756  MEMB      88              0.0000000000
     11707        94  POPC      H14R           -7.4999376836       21.1958783581       -5.9009419677  MEMB      88              0.0000000000
     11708        94  POPC      H14S           -6.1338588902       20.5874741752       -4.8998444923  MEMB      88              0.0000000000
     11709        94  POPC      C215           -8.0905587013       19.9555727571       -4.2321715553  MEMB      88              0.0000000000
     11710        94  POPC      H15R           -9.0532230688       19.6312802218       -4.6729270213  MEMB      88              0.0000000000
     11711        94  POPC      H15S           -8.2921900692       20.8905544758       -3.6567184935  MEMB      88              0.0000000000
     11712        94  POPC      C216           -7.5904180462       18.8868341000       -3.2459873085  MEMB      88              0.0000000000
     11713        94  POPC      H16R           -7.5163992469       17.9073819093       -3.7670301156  MEMB      88              0.0000000000
     11714        94  POPC      H16S           -8.3464475323       18.7775123084       -2.4355315130  MEMB      88              0.0000000000
     11715        94  POPC      C217           -6.2291553565       19.2206139026       -2.6194560887  MEMB      88              0.0000000000
     11716        94  POPC      H17R           -6.2660130018       20.2563760861       -2.2208545390  MEMB      88              0.0000000000
     11717        94  POPC      H17S           -5.4441828780       19.1907536093       -3.4085045544  MEMB      88              0.0000000000
     11718        94  POPC      C218           -5.8227314827       18.2821868906       -1.4871175770  MEMB      88              0.0000000000
     11719        94  POPC      H18R           -4.8227892748       18.5559826587       -1.0870785441  MEMB      88              0.0000000000
     11720        94  POPC      H18S           -5.7800876056       17.2342872322       -1.8527949631  MEMB      88              0.0000000000
     11721        94  POPC      H18T           -6.5579421610       18.3442789449       -0.6549384413  MEMB      88              0.0000000000
     11722        94  POPC      C33            -8.1240384195       26.1308148676      -10.9393107394  MEMB      88              0.0000000000
     11723        94  POPC      H3X            -8.6482955767       26.8009113159      -10.2162236071  MEMB      88              0.0000000000
     11724        94  POPC      H3Y            -7.4638778916       26.7811126551      -11.5479194449  MEMB      88              0.0000000000
     11725        94  POPC      C34            -7.2677928082       25.1545326093      -10.1060588195  MEMB      88              0.0000000000
     11726        94  POPC      H4X            -6.6929395023       25.7767751437       -9.3870808938  MEMB      88              0.0000000000
     11727        94  POPC      H4Y            -6.5176901317       24.6537924532      -10.7452061640  MEMB      88              0.0000000000
     11728        94  POPC      C35            -8.0911164919       24.0741712288       -9.3653156513  MEMB      88              0.0000000000
     11729        94  POPC      H5X            -8.4576392527       23.3289299337      -10.1051858964  MEMB      88              0.0000000000
     11730        94  POPC      H5Y            -8.9704301385       24.5687271965       -8.8956480832  MEMB      88              0.0000000000
     11731        94  POPC      C36            -7.3504565357       23.2566161683       -8.2932968796  MEMB      88              0.0000000000
     11732        94  POPC      H6X            -6.5034790089       22.7208223862       -8.7812441277  MEMB      88              0.0000000000
     11733        94  POPC      H6Y            -8.0351301888       22.4849126587       -7.8772964267  MEMB      88              0.0000000000
     11734        94  POPC      C37            -6.7992482510       24.1300460337       -7.1668854275  MEMB      88              0.0000000000
     11735        94  POPC      H7X            -6.9960331727       25.1843999572       -7.4582521268  MEMB      88              0.0000000000
     11736        94  POPC      H7Y            -5.6978132615       23.9862763303       -7.0978070202  MEMB      88              0.0000000000
     11737        94  POPC      C38            -7.4233909821       23.9886162796       -5.7703770127  MEMB      88              0.0000000000
     11738        94  POPC      H8X            -8.2801299170       23.2856889730       -5.7647005703  MEMB      88              0.0000000000
     11739        94  POPC      H8Y            -7.8212516684       24.9949108669       -5.5243992302  MEMB      88              0.0000000000
     11740        94  POPC      C39            -6.3867236435       23.6339326789       -4.6950463999  MEMB      88              0.0000000000
     11741        94  POPC      H9X            -5.4457277523       24.1832305835       -4.9040490689  MEMB      88              0.0000000000
     11742        94  POPC      H9Y            -6.1157628072       22.5707261464       -4.7743103158  MEMB      88              0.0000000000
     11743        94  POPC      C310           -6.8081969493       23.9443032039       -3.2506343154  MEMB      88              0.0000000000
     11744        94  POPC      H10X           -7.8408501659       23.5838500409       -3.0544643438  MEMB      88              0.0000000000
     11745        94  POPC      H10Y           -6.8020260661       25.0487664554       -3.1128235980  MEMB      88              0.0000000000
     11746        94  POPC      C311           -5.8438171204       23.2883075982       -2.2493815227  MEMB      88              0.0000000000
     11747        94  POPC      H11X           -4.8754370999       23.1030527104       -2.7691531753  MEMB      88              0.0000000000
     11748        94  POPC      H11Y           -6.2537498073       22.3050246325       -1.9401008452  MEMB      88              0.0000000000
     11749        94  POPC      C312           -5.5413225759       24.1273990018       -1.0031913135  MEMB      88              0.0000000000
     11750        94  POPC      H12X           -6.4673839902       24.2590475661       -0.4010957576  MEMB      88              0.0000000000
     11751        94  POPC      H12Y           -5.2072356879       25.1371798540       -1.3302293525  MEMB      88              0.0000000000
     11752        94  POPC      C313           -4.4320578395       23.4947520792       -0.1444957015  MEMB      88              0.0000000000
     11753        94  POPC      H13X           -3.6359794012       23.0994893346       -0.8148403726  MEMB      88              0.0000000000
     11754        94  POPC      H13Y           -4.8439471771       22.6215549053        0.4064063279  MEMB      88              0.0000000000
     11755        94  POPC      C314           -3.7813732747       24.4880229989        0.8321034185  MEMB      88              0.0000000000
     11756        94  POPC      H14X           -3.2876994474       25.3005338973        0.2553340499  MEMB      88              0.0000000000
     11757        94  POPC      H14Y           -2.9898100951       23.9702656972        1.4182866005  MEMB      88              0.0000000000
     11758        94  POPC      C315           -4.7741015330       25.1273954005        1.8047556881  MEMB      88              0.0000000000
     11759        94  POPC      H15X           -5.6270427208       25.5668459219        1.2423029985  MEMB      88              0.0000000000
     11760        94  POPC      H15Y           -4.2575661417       25.9684801855        2.3155234809  MEMB      88              0.0000000000
     11761        94  POPC      C316           -5.2974843158       24.1418965457        2.8459466894  MEMB      88              0.0000000000
     11762        94  POPC      H16X           -4.4888359341       23.8487092231        3.5492598309  MEMB      88              0.0000000000
     11763        94  POPC      H16Y           -5.6689007739       23.2260247419        2.3471842047  MEMB      88              0.0000000000
     11764        94  POPC      H16Z           -6.1304569928       24.5785504073        3.4323942359  MEMB      88              0.0000000000
     11765        95  POPC      N             -22.8630136810        4.9711127743      -20.7632942497  MEMB      89              0.0000000000
     11766        95  POPC      C12           -21.6240028198        5.8326378281      -20.6410826812  MEMB      89              0.0000000000
     11767        95  POPC      H12A          -21.9100506801        6.8429519448      -20.8858449234  MEMB      89              0.0000000000
     11768        95  POPC      H12B          -20.9328851183        5.4805502077      -21.4034307305  MEMB      89              0.0000000000
     11769        95  POPC      C13           -23.9452442046        5.4402327214      -19.8310442244  MEMB      89              0.0000000000
     11770        95  POPC      H13A          -23.6430999775        5.2841393815      -18.7924402897  MEMB      89              0.0000000000
     11771        95  POPC      H13B          -24.1901105464        6.4841857362      -19.9451157887  MEMB      89              0.0000000000
     11772        95  POPC      H13C          -24.8662237989        4.8760741316      -19.9506482668  MEMB      89              0.0000000000
     11773        95  POPC      C14           -23.3662091141        5.0067409317      -22.1664627985  MEMB      89              0.0000000000
     11774        95  POPC      H14A          -23.6499439330        6.0086430953      -22.4520361412  MEMB      89              0.0000000000
     11775        95  POPC      H14B          -22.6215452590        4.6204931275      -22.8583012324  MEMB      89              0.0000000000
     11776        95  POPC      H14C          -24.2377565045        4.3640649424      -22.2287328758  MEMB      89              0.0000000000
     11777        95  POPC      C15           -22.5635408629        3.5488796737      -20.4287056858  MEMB      89              0.0000000000
     11778        95  POPC      H15A          -23.4694335249        2.9500726933      -20.4431703268  MEMB      89              0.0000000000
     11779        95  POPC      H15B          -22.1477472825        3.5012129212      -19.4220668197  MEMB      89              0.0000000000
     11780        95  POPC      H15C          -21.8456298773        3.1262206060      -21.1258919339  MEMB      89              0.0000000000
     11781        95  POPC      C11           -20.8415949253        5.8397863658      -19.3043049544  MEMB      89              0.0000000000
     11782        95  POPC      H11A          -21.5565139990        5.8924080138      -18.4473206085  MEMB      89              0.0000000000
     11783        95  POPC      H11B          -20.2089432814        6.7541556382      -19.2557604644  MEMB      89              0.0000000000
     11784        95  POPC      P             -19.9299873784        3.7360261330      -18.0035007929  MEMB      89              0.0000000000
     11785        95  POPC      O13           -19.1125694065        4.3536067804      -16.9374992015  MEMB      89              0.0000000000
     11786        95  POPC      O14           -19.5405790799        2.4125655426      -18.5456835045  MEMB      89              0.0000000000
     11787        95  POPC      O12           -19.9714871126        4.7151237219      -19.2563395330  MEMB      89              0.0000000000
     11788        95  POPC      O11           -21.4720723456        3.6713057095      -17.6049034509  MEMB      89              0.0000000000
     11789        95  POPC      C1            -21.9400199363        2.4267232743      -17.0722579842  MEMB      89              0.0000000000
     11790        95  POPC      HA            -21.3246074576        2.1537658467      -16.1853369562  MEMB      89              0.0000000000
     11791        95  POPC      HB            -21.8607091576        1.6186853484      -17.8348137733  MEMB      89              0.0000000000
     11792        95  POPC      C2            -23.4161618221        2.4745686286      -16.5829058131  MEMB      89              0.0000000000
     11793        95  POPC      HS            -24.0765863161        2.7782713865      -17.4292887841  MEMB      89              0.0000000000
     11794        95  POPC      O21           -23.5096236564        3.3826816806      -15.4876858960  MEMB      89              0.0000000000
     11795        95  POPC      C21           -23.6394490120        4.6525507223      -15.7796623699  MEMB      89              0.0000000000
     11796        95  POPC      O22           -23.8842510766        5.1266805372      -16.8755815019  MEMB      89              0.0000000000
     11797        95  POPC      C22           -23.4323276877        5.4370428009      -14.4728487175  MEMB      89              0.0000000000
     11798        95  POPC      H2R           -23.7280081520        6.4895582169      -14.6446138340  MEMB      89              0.0000000000
     11799        95  POPC      H2S           -22.3452983056        5.4044852578      -14.2474505865  MEMB      89              0.0000000000
     11800        95  POPC      C3            -23.9282533970        1.1031487024      -16.0512436060  MEMB      89              0.0000000000
     11801        95  POPC      HX            -23.9477783495        0.3373685086      -16.8559026184  MEMB      89              0.0000000000
     11802        95  POPC      HY            -24.9858176502        1.2687876240      -15.7521631552  MEMB      89              0.0000000000
     11803        95  POPC      O31           -23.2031745259        0.6780981004      -14.8761919369  MEMB      89              0.0000000000
     11804        95  POPC      C31           -22.0917195899       -0.0205707686      -15.0683919132  MEMB      89              0.0000000000
     11805        95  POPC      O32           -21.7581120779       -0.5368941701      -16.1213323289  MEMB      89              0.0000000000
     11806        95  POPC      C32           -21.3017610997       -0.1205067725      -13.7591901187  MEMB      89              0.0000000000
     11807        95  POPC      H2X           -20.7005248900       -1.0500231509      -13.8372116337  MEMB      89              0.0000000000
     11808        95  POPC      H2Y           -22.0021128843       -0.2274191443      -12.9079783698  MEMB      89              0.0000000000
     11809        95  POPC      C23           -24.2312742090        4.8419341540      -13.2806455432  MEMB      89              0.0000000000
     11810        95  POPC      H3R           -24.0821889473        3.7360974791      -13.2425181444  MEMB      89              0.0000000000
     11811        95  POPC      H3S           -25.3183482471        5.0177649661      -13.4446196357  MEMB      89              0.0000000000
     11812        95  POPC      C24           -23.8190620473        5.3841982169      -11.9048938297  MEMB      89              0.0000000000
     11813        95  POPC      H4R           -24.0089909070        6.4793188349      -11.8565211549  MEMB      89              0.0000000000
     11814        95  POPC      H4S           -22.7244023969        5.2185172963      -11.7824211155  MEMB      89              0.0000000000
     11815        95  POPC      C25           -24.5571416428        4.6670674316      -10.7572642095  MEMB      89              0.0000000000
     11816        95  POPC      H5R           -24.5066775282        3.5677333602      -10.9291928405  MEMB      89              0.0000000000
     11817        95  POPC      H5S           -25.6309736720        4.9601916636      -10.7750075224  MEMB      89              0.0000000000
     11818        95  POPC      C26           -23.9702755000        4.9645996839       -9.3673676594  MEMB      89              0.0000000000
     11819        95  POPC      H6R           -23.9453077941        6.0698953433       -9.2306457443  MEMB      89              0.0000000000
     11820        95  POPC      H6S           -22.9229247487        4.5939573337       -9.3170319395  MEMB      89              0.0000000000
     11821        95  POPC      C27           -24.7806987820        4.3540814827       -8.2075409671  MEMB      89              0.0000000000
     11822        95  POPC      H7R           -25.8219250274        4.7349024336       -8.2861899167  MEMB      89              0.0000000000
     11823        95  POPC      H7S           -24.3513753277        4.7373265817       -7.2530405369  MEMB      89              0.0000000000
     11824        95  POPC      C28           -24.7883948590        2.8085086415       -8.1650843718  MEMB      89              0.0000000000
     11825        95  POPC      H8R           -23.7394294841        2.4721946526       -8.1955427912  MEMB      89              0.0000000000
     11826        95  POPC      H8S           -25.2778831674        2.4269099437       -9.0866835517  MEMB      89              0.0000000000
     11827        95  POPC      C29           -25.4832767219        2.2552026583       -6.9450145394  MEMB      89              0.0000000000
     11828        95  POPC      H91           -26.5717572055        2.4192356799       -6.9407079875  MEMB      89              0.0000000000
     11829        95  POPC      C210          -24.9573232569        1.5766796569       -5.9076381905  MEMB      89              0.0000000000
     11830        95  POPC      H101          -25.6390778242        1.2819263692       -5.0948763597  MEMB      89              0.0000000000
     11831        95  POPC      C211          -23.5232563293        1.1690300140       -5.6706954312  MEMB      89              0.0000000000
     11832        95  POPC      H11R          -22.9424076758        1.1742824205       -6.6180373895  MEMB      89              0.0000000000
     11833        95  POPC      H11S          -23.5026930436        0.1141500052       -5.3189221634  MEMB      89              0.0000000000
     11834        95  POPC      C212          -22.7499796618        2.0133214289       -4.6341890914  MEMB      89              0.0000000000
     11835        95  POPC      H12R          -22.4780899750        2.9866331990       -5.1048564600  MEMB      89              0.0000000000
     11836        95  POPC      H12S          -21.8022795926        1.4830860398       -4.3933945839  MEMB      89              0.0000000000
     11837        95  POPC      C213          -23.4958398989        2.3159988409       -3.3226278524  MEMB      89              0.0000000000
     11838        95  POPC      H13R          -24.3469656081        2.9819939475       -3.5800871134  MEMB      89              0.0000000000
     11839        95  POPC      H13S          -22.8305761337        2.8956877588       -2.6437102129  MEMB      89              0.0000000000
     11840        95  POPC      C214          -24.0606962535        1.1024784577       -2.5685868298  MEMB      89              0.0000000000
     11841        95  POPC      H14R          -24.4950780778        0.3576481779       -3.2655245477  MEMB      89              0.0000000000
     11842        95  POPC      H14S          -24.9035910064        1.4659288266       -1.9338169620  MEMB      89              0.0000000000
     11843        95  POPC      C215          -23.0528418448        0.4280795571       -1.6297239165  MEMB      89              0.0000000000
     11844        95  POPC      H15R          -22.5230662505        1.2121857782       -1.0408642280  MEMB      89              0.0000000000
     11845        95  POPC      H15S          -22.2924742777       -0.1292575827       -2.2200737940  MEMB      89              0.0000000000
     11846        95  POPC      C216          -23.7679623481       -0.5069341157       -0.6464390345  MEMB      89              0.0000000000
     11847        95  POPC      H16R          -24.3187109607       -1.2865339512       -1.2166798793  MEMB      89              0.0000000000
     11848        95  POPC      H16S          -24.5120816629        0.0971922539       -0.0799094632  MEMB      89              0.0000000000
     11849        95  POPC      C217          -22.8261100896       -1.1873285174        0.3488004036  MEMB      89              0.0000000000
     11850        95  POPC      H17R          -22.2440768511       -0.4104992066        0.8925623796  MEMB      89              0.0000000000
     11851        95  POPC      H17S          -22.1100166918       -1.8035087310       -0.2238187479  MEMB      89              0.0000000000
     11852        95  POPC      C218          -23.5340569507       -2.0946569320        1.3537283097  MEMB      89              0.0000000000
     11853        95  POPC      H18R          -22.7987458311       -2.5630933901        2.0423411127  MEMB      89              0.0000000000
     11854        95  POPC      H18S          -24.0852704598       -2.9046302635        0.8290328106  MEMB      89              0.0000000000
     11855        95  POPC      H18T          -24.2575721910       -1.5091354291        1.9603634385  MEMB      89              0.0000000000
     11856        95  POPC      C33           -20.3311675271        1.0696179423      -13.5411068788  MEMB      89              0.0000000000
     11857        95  POPC      H3X           -19.8361402952        1.3472144494      -14.5006367540  MEMB      89              0.0000000000
     11858        95  POPC      H3Y           -19.5168082897        0.7383571093      -12.8593576863  MEMB      89              0.0000000000
     11859        95  POPC      C34           -20.9719335248        2.3246254887      -12.9157129357  MEMB      89              0.0000000000
     11860        95  POPC      H4X           -21.7502731553        2.7167336193      -13.6091866767  MEMB      89              0.0000000000
     11861        95  POPC      H4Y           -20.1841391203        3.1086573087      -12.8337026257  MEMB      89              0.0000000000
     11862        95  POPC      C35           -21.6061358432        2.1293098243      -11.5233290937  MEMB      89              0.0000000000
     11863        95  POPC      H5X           -22.5062836613        1.4828491485      -11.6164325001  MEMB      89              0.0000000000
     11864        95  POPC      H5Y           -21.9561906069        3.1177051948      -11.1488760085  MEMB      89              0.0000000000
     11865        95  POPC      C36           -20.6618478691        1.5168937534      -10.4751268892  MEMB      89              0.0000000000
     11866        95  POPC      H6X           -19.7333336912        2.1259316904      -10.4153868576  MEMB      89              0.0000000000
     11867        95  POPC      H6Y           -20.3907755691        0.4874979768      -10.8024349274  MEMB      89              0.0000000000
     11868        95  POPC      C37           -21.2906956508        1.4184464272       -9.0755563919  MEMB      89              0.0000000000
     11869        95  POPC      H7X           -20.9802536693        0.4701630410       -8.5823563798  MEMB      89              0.0000000000
     11870        95  POPC      H7Y           -22.3899112612        1.3535338520       -9.2203427391  MEMB      89              0.0000000000
     11871        95  POPC      C38           -20.9196858582        2.5947475725       -8.1524884592  MEMB      89              0.0000000000
     11872        95  POPC      H8X           -21.8104467062        2.9147473524       -7.5690113712  MEMB      89              0.0000000000
     11873        95  POPC      H8Y           -20.6110136602        3.4686134873       -8.7661669844  MEMB      89              0.0000000000
     11874        95  POPC      C39           -19.8253598623        2.2437469704       -7.1329502737  MEMB      89              0.0000000000
     11875        95  POPC      H9X           -18.9335335292        1.8531488784       -7.6679427177  MEMB      89              0.0000000000
     11876        95  POPC      H9Y           -20.2041412937        1.4440395480       -6.4570678740  MEMB      89              0.0000000000
     11877        95  POPC      C310          -19.3970915522        3.4555476684       -6.2987467506  MEMB      89              0.0000000000
     11878        95  POPC      H10X          -20.2939627348        3.9646821168       -5.8788396487  MEMB      89              0.0000000000
     11879        95  POPC      H10Y          -18.8965463945        4.1801178122       -6.9823535940  MEMB      89              0.0000000000
     11880        95  POPC      C311          -18.4340797702        3.1044250246       -5.1555372814  MEMB      89              0.0000000000
     11881        95  POPC      H11X          -17.8771461362        4.0299522910       -4.8858040016  MEMB      89              0.0000000000
     11882        95  POPC      H11Y          -17.6792564661        2.3615897424       -5.4894441044  MEMB      89              0.0000000000
     11883        95  POPC      C312          -19.1469601889        2.6196062981       -3.8849085192  MEMB      89              0.0000000000
     11884        95  POPC      H12X          -19.5075771473        1.5769902560       -4.0174355040  MEMB      89              0.0000000000
     11885        95  POPC      H12Y          -20.0373627235        3.2667907618       -3.7061561474  MEMB      89              0.0000000000
     11886        95  POPC      C313          -18.2354322709        2.7218469764       -2.6548126201  MEMB      89              0.0000000000
     11887        95  POPC      H13X          -17.7756692849        3.7376833671       -2.6610806977  MEMB      89              0.0000000000
     11888        95  POPC      H13Y          -17.4047995652        1.9892948987       -2.7316323131  MEMB      89              0.0000000000
     11889        95  POPC      C314          -18.9805084871        2.5753732630       -1.3190428008  MEMB      89              0.0000000000
     11890        95  POPC      H14X          -19.8904529969        3.2161755799       -1.3361958538  MEMB      89              0.0000000000
     11891        95  POPC      H14Y          -18.3094816100        2.9644606375       -0.5202860331  MEMB      89              0.0000000000
     11892        95  POPC      C315          -19.3768613635        1.1391895219       -0.9495463468  MEMB      89              0.0000000000
     11893        95  POPC      H15X          -20.0165790174        0.7096102533       -1.7529596756  MEMB      89              0.0000000000
     11894        95  POPC      H15Y          -19.9948567043        1.1744859097       -0.0218381304  MEMB      89              0.0000000000
     11895        95  POPC      C316          -18.1779703525        0.2219019846       -0.7005884023  MEMB      89              0.0000000000
     11896        95  POPC      H16X          -18.5095097353       -0.7632946202       -0.3151783805  MEMB      89              0.0000000000
     11897        95  POPC      H16Y          -17.4933997457        0.6762881736        0.0457410419  MEMB      89              0.0000000000
     11898        95  POPC      H16Z          -17.6125476980        0.0495389665       -1.6399093888  MEMB      89              0.0000000000
     11899        96  POPC      N             -13.1548024896       18.1343433636      -20.9425129211  MEMB      90              0.0000000000
     11900        96  POPC      C12           -14.3555377798       17.5775404753      -20.1764989417  MEMB      90              0.0000000000
     11901        96  POPC      H12A          -15.2634544500       17.7226056743      -20.7475931242  MEMB      90              0.0000000000
     11902        96  POPC      H12B          -14.4409449053       18.1348670474      -19.2403935832  MEMB      90              0.0000000000
     11903        96  POPC      C13           -12.9321856766       17.3179225207      -22.1809255904  MEMB      90              0.0000000000
     11904        96  POPC      H13A          -13.6731318123       17.4948415364      -22.9492635730  MEMB      90              0.0000000000
     11905        96  POPC      H13B          -11.9529014195       17.5270313219      -22.6004964354  MEMB      90              0.0000000000
     11906        96  POPC      H13C          -12.9404733396       16.2613266715      -21.9091021779  MEMB      90              0.0000000000
     11907        96  POPC      C14           -13.3502889868       19.5864161401      -21.2852379181  MEMB      90              0.0000000000
     11908        96  POPC      H14A          -13.6792860174       20.1649725737      -20.4285838222  MEMB      90              0.0000000000
     11909        96  POPC      H14B          -12.4257599698       20.0312029552      -21.6534835776  MEMB      90              0.0000000000
     11910        96  POPC      H14C          -14.1018792335       19.6897987874      -22.0610271927  MEMB      90              0.0000000000
     11911        96  POPC      C15           -11.9403935067       17.9873615577      -20.0785598918  MEMB      90              0.0000000000
     11912        96  POPC      H15A          -11.8130123680       16.9315444058      -19.8417858745  MEMB      90              0.0000000000
     11913        96  POPC      H15B          -12.0846006540       18.4379208485      -19.0927543387  MEMB      90              0.0000000000
     11914        96  POPC      H15C          -11.0325344105       18.3647319653      -20.5162881926  MEMB      90              0.0000000000
     11915        96  POPC      C11           -14.3329903853       16.0801911964      -19.7464685224  MEMB      90              0.0000000000
     11916        96  POPC      H11A          -14.0964500163       15.4343586568      -20.6192704223  MEMB      90              0.0000000000
     11917        96  POPC      H11B          -15.3630752699       15.8059389244      -19.4188662606  MEMB      90              0.0000000000
     11918        96  POPC      P             -13.5971597598       16.4844011855      -17.2715068906  MEMB      90              0.0000000000
     11919        96  POPC      O13           -13.3527547195       17.9292082821      -17.4863096789  MEMB      90              0.0000000000
     11920        96  POPC      O14           -12.8151295719       15.7949174959      -16.2257528101  MEMB      90              0.0000000000
     11921        96  POPC      O12           -13.4012306572       15.8067998191      -18.6997965562  MEMB      90              0.0000000000
     11922        96  POPC      O11           -15.1205104716       16.2458453512      -16.9791351505  MEMB      90              0.0000000000
     11923        96  POPC      C1            -15.6567011185       14.9301864886      -16.7843235322  MEMB      90              0.0000000000
     11924        96  POPC      HA            -14.9322156318       14.2644480371      -16.2542694327  MEMB      90              0.0000000000
     11925        96  POPC      HB            -15.8851257884       14.4670403223      -17.7695579852  MEMB      90              0.0000000000
     11926        96  POPC      C2            -16.9855294097       14.9284544244      -15.9531956254  MEMB      90              0.0000000000
     11927        96  POPC      HS            -17.8125038752       14.6078485119      -16.6232953047  MEMB      90              0.0000000000
     11928        96  POPC      O21           -17.2914526028       16.2236178885      -15.4274593742  MEMB      90              0.0000000000
     11929        96  POPC      C21           -17.5598615493       17.1865583421      -16.3020846047  MEMB      90              0.0000000000
     11930        96  POPC      O22           -17.9191683319       17.0646055494      -17.4565105775  MEMB      90              0.0000000000
     11931        96  POPC      C22           -17.3651224570       18.5116983938      -15.5896359830  MEMB      90              0.0000000000
     11932        96  POPC      H2R           -17.7684405121       18.3316290751      -14.5762674478  MEMB      90              0.0000000000
     11933        96  POPC      H2S           -17.9582370632       19.2957904677      -16.0974042711  MEMB      90              0.0000000000
     11934        96  POPC      C3            -16.9250246577       13.8956729551      -14.7713646831  MEMB      90              0.0000000000
     11935        96  POPC      HX            -16.9032717790       12.8839177155      -15.2343256586  MEMB      90              0.0000000000
     11936        96  POPC      HY            -17.8690526125       13.9765255308      -14.1874327384  MEMB      90              0.0000000000
     11937        96  POPC      O31           -15.7346776175       14.0486556953      -13.9612614827  MEMB      90              0.0000000000
     11938        96  POPC      C31           -15.8596009621       14.3646323013      -12.6811006676  MEMB      90              0.0000000000
     11939        96  POPC      O32           -16.8996434259       14.3764146349      -12.0472762446  MEMB      90              0.0000000000
     11940        96  POPC      C32           -14.4867908111       14.7486056230      -12.1417251122  MEMB      90              0.0000000000
     11941        96  POPC      H2X           -14.5349089139       15.8161533286      -11.8408973185  MEMB      90              0.0000000000
     11942        96  POPC      H2Y           -13.7347740626       14.6515094937      -12.9538018103  MEMB      90              0.0000000000
     11943        96  POPC      C23           -15.8877014936       18.9254346004      -15.4213209932  MEMB      90              0.0000000000
     11944        96  POPC      H3R           -15.4112482036       19.0789595754      -16.4156676443  MEMB      90              0.0000000000
     11945        96  POPC      H3S           -15.3291601688       18.1005463669      -14.9179291725  MEMB      90              0.0000000000
     11946        96  POPC      C24           -15.7461958955       20.1933211282      -14.5697779601  MEMB      90              0.0000000000
     11947        96  POPC      H4R           -16.1765863533       21.0490119924      -15.1397655107  MEMB      90              0.0000000000
     11948        96  POPC      H4S           -14.6659061704       20.4070020934      -14.4139592191  MEMB      90              0.0000000000
     11949        96  POPC      C25           -16.4664958045       20.1225055783      -13.2101502525  MEMB      90              0.0000000000
     11950        96  POPC      H5R           -17.5215344496       19.8551818644      -13.3613994096  MEMB      90              0.0000000000
     11951        96  POPC      H5S           -16.4884665602       21.1333414974      -12.7570056686  MEMB      90              0.0000000000
     11952        96  POPC      C26           -15.8616972153       19.1365795940      -12.2031939813  MEMB      90              0.0000000000
     11953        96  POPC      H6R           -14.8026363287       19.4196170708      -12.0230010023  MEMB      90              0.0000000000
     11954        96  POPC      H6S           -15.8570383432       18.1076386384      -12.6278768149  MEMB      90              0.0000000000
     11955        96  POPC      C27           -16.6461160114       19.1318039954      -10.8799580827  MEMB      90              0.0000000000
     11956        96  POPC      H7R           -17.4257643976       18.3360097234      -10.9187045191  MEMB      90              0.0000000000
     11957        96  POPC      H7S           -17.1590333341       20.1134250703      -10.7757513186  MEMB      90              0.0000000000
     11958        96  POPC      C28           -15.7932004217       18.9811008285       -9.6145209884  MEMB      90              0.0000000000
     11959        96  POPC      H8R           -16.4746225559       18.8755740508       -8.7407285503  MEMB      90              0.0000000000
     11960        96  POPC      H8S           -15.2269071310       19.9272144780       -9.4613110742  MEMB      90              0.0000000000
     11961        96  POPC      C29           -14.8959815703       17.7783342095       -9.7093900523  MEMB      90              0.0000000000
     11962        96  POPC      H91           -15.4164125074       16.8081276673       -9.7588075173  MEMB      90              0.0000000000
     11963        96  POPC      C210          -13.5529523743       17.8032746100       -9.7347257578  MEMB      90              0.0000000000
     11964        96  POPC      H101          -13.0056465601       16.8525117008       -9.7618160496  MEMB      90              0.0000000000
     11965        96  POPC      C211          -12.6868346393       19.0324493159       -9.6706559515  MEMB      90              0.0000000000
     11966        96  POPC      H11R          -13.2045905670       19.9178765577      -10.1028253062  MEMB      90              0.0000000000
     11967        96  POPC      H11S          -11.7581148256       18.8880760485      -10.2629437649  MEMB      90              0.0000000000
     11968        96  POPC      C212          -12.3248637061       19.3434618668       -8.2097644579  MEMB      90              0.0000000000
     11969        96  POPC      H12R          -13.2572413026       19.4618737661       -7.6138426507  MEMB      90              0.0000000000
     11970        96  POPC      H12S          -11.7954386883       20.3155780851       -8.1747328583  MEMB      90              0.0000000000
     11971        96  POPC      C213          -11.4001601480       18.3091143845       -7.5561116038  MEMB      90              0.0000000000
     11972        96  POPC      H13R          -10.4468106894       18.2689387434       -8.1301545570  MEMB      90              0.0000000000
     11973        96  POPC      H13S          -11.8648299635       17.3025964891       -7.5905949850  MEMB      90              0.0000000000
     11974        96  POPC      C214          -11.0877178827       18.6521381101       -6.0958896268  MEMB      90              0.0000000000
     11975        96  POPC      H14R          -10.7790601746       19.7180911562       -6.0324293674  MEMB      90              0.0000000000
     11976        96  POPC      H14S          -10.2311118694       18.0255967438       -5.7572263698  MEMB      90              0.0000000000
     11977        96  POPC      C215          -12.2711736835       18.3979948230       -5.1544285746  MEMB      90              0.0000000000
     11978        96  POPC      H15R          -12.5294542689       17.3182127438       -5.2069925218  MEMB      90              0.0000000000
     11979        96  POPC      H15S          -13.1631906976       18.9688514772       -5.4951016955  MEMB      90              0.0000000000
     11980        96  POPC      C216          -11.9645264415       18.7810358215       -3.7023298439  MEMB      90              0.0000000000
     11981        96  POPC      H16R          -12.0898161576       19.8827646930       -3.5954973371  MEMB      90              0.0000000000
     11982        96  POPC      H16S          -10.9012757832       18.5448889352       -3.4691269850  MEMB      90              0.0000000000
     11983        96  POPC      C217          -12.8503060444       18.0626921518       -2.6751662795  MEMB      90              0.0000000000
     11984        96  POPC      H17R          -12.7217508028       18.5864074778       -1.7032714390  MEMB      90              0.0000000000
     11985        96  POPC      H17S          -12.4761573357       17.0239279299       -2.5339965364  MEMB      90              0.0000000000
     11986        96  POPC      C218          -14.3359915828       17.9803167227       -3.0344164112  MEMB      90              0.0000000000
     11987        96  POPC      H18R          -14.4973970229       17.2658509024       -3.8666299111  MEMB      90              0.0000000000
     11988        96  POPC      H18S          -14.7274821861       18.9657774134       -3.3554608556  MEMB      90              0.0000000000
     11989        96  POPC      H18T          -14.9246901156       17.6298514683       -2.1602011767  MEMB      90              0.0000000000
     11990        96  POPC      C33           -14.0769939429       13.8820104637      -10.9353074186  MEMB      90              0.0000000000
     11991        96  POPC      H3X           -14.2287663330       12.7991435398      -11.1561874071  MEMB      90              0.0000000000
     11992        96  POPC      H3Y           -14.7238450204       14.1351912059      -10.0686504506  MEMB      90              0.0000000000
     11993        96  POPC      C34           -12.5959734444       14.0795565864      -10.5964661981  MEMB      90              0.0000000000
     11994        96  POPC      H4X           -12.3171409852       15.1520226137      -10.6220306853  MEMB      90              0.0000000000
     11995        96  POPC      H4Y           -12.0195026002       13.5902644187      -11.4159218036  MEMB      90              0.0000000000
     11996        96  POPC      C35           -12.1948911993       13.4548857629       -9.2563925966  MEMB      90              0.0000000000
     11997        96  POPC      H5X           -11.1268415939       13.1366558575       -9.3293906465  MEMB      90              0.0000000000
     11998        96  POPC      H5Y           -12.7966256944       12.5401992407       -9.1002752060  MEMB      90              0.0000000000
     11999        96  POPC      C36           -12.2685375790       14.4088351450       -8.0487523932  MEMB      90              0.0000000000
     12000        96  POPC      H6X           -11.6261697694       15.2871259317       -8.2809226164  MEMB      90              0.0000000000
     12001        96  POPC      H6Y           -11.8071139318       13.8979610182       -7.1717593361  MEMB      90              0.0000000000
     12002        96  POPC      C37           -13.6610865600       14.9158273891       -7.6238762872  MEMB      90              0.0000000000
     12003        96  POPC      H7X           -14.1587875644       15.4541959631       -8.4512737473  MEMB      90              0.0000000000
     12004        96  POPC      H7Y           -13.5075635318       15.6511379092       -6.8000491196  MEMB      90              0.0000000000
     12005        96  POPC      C38           -14.5973277830       13.8135722185       -7.1190685853  MEMB      90              0.0000000000
     12006        96  POPC      H8X           -13.9680295442       13.1009647966       -6.5474713226  MEMB      90              0.0000000000
     12007        96  POPC      H8Y           -15.0410808093       13.2722189304       -7.9829926534  MEMB      90              0.0000000000
     12008        96  POPC      C39           -15.7106024838       14.2854779143       -6.1645113566  MEMB      90              0.0000000000
     12009        96  POPC      H9X           -16.5023988562       13.5015009704       -6.1599713602  MEMB      90              0.0000000000
     12010        96  POPC      H9Y           -16.1653386387       15.2315683203       -6.5271119071  MEMB      90              0.0000000000
     12011        96  POPC      C310          -15.1753857969       14.4177947333       -4.7307201353  MEMB      90              0.0000000000
     12012        96  POPC      H10X          -14.4805788509       15.2814548352       -4.6667363029  MEMB      90              0.0000000000
     12013        96  POPC      H10Y          -14.5681711439       13.5042524283       -4.5280283779  MEMB      90              0.0000000000
     12014        96  POPC      C311          -16.2249283220       14.4902029207       -3.6070408754  MEMB      90              0.0000000000
     12015        96  POPC      H11X          -17.0948588857       13.8417470966       -3.8547828931  MEMB      90              0.0000000000
     12016        96  POPC      H11Y          -16.5914648504       15.5336153617       -3.4959846540  MEMB      90              0.0000000000
     12017        96  POPC      C312          -15.6056189992       13.9891748895       -2.2888368587  MEMB      90              0.0000000000
     12018        96  POPC      H12X          -14.6371500660       14.5039193133       -2.1375999733  MEMB      90              0.0000000000
     12019        96  POPC      H12Y          -15.3830728194       12.9043995087       -2.4153272575  MEMB      90              0.0000000000
     12020        96  POPC      C313          -16.4582478447       14.1673698839       -1.0243985078  MEMB      90              0.0000000000
     12021        96  POPC      H13X          -16.2326948231       13.3322607110       -0.3226619085  MEMB      90              0.0000000000
     12022        96  POPC      H13Y          -17.5327533806       14.0741357167       -1.2949984904  MEMB      90              0.0000000000
     12023        96  POPC      C314          -16.2094933201       15.4937602015       -0.2787492605  MEMB      90              0.0000000000
     12024        96  POPC      H14X          -16.9138268175       15.5442125015        0.5805557402  MEMB      90              0.0000000000
     12025        96  POPC      H14Y          -16.4547861535       16.3376874467       -0.9611736100  MEMB      90              0.0000000000
     12026        96  POPC      C315          -14.7856211076       15.6993171718        0.2754600496  MEMB      90              0.0000000000
     12027        96  POPC      H15X          -14.7517847296       16.6955121255        0.7695288503  MEMB      90              0.0000000000
     12028        96  POPC      H15Y          -14.0609711666       15.7508421122       -0.5661853339  MEMB      90              0.0000000000
     12029        96  POPC      C316          -14.3180595466       14.6463450851        1.2859183408  MEMB      90              0.0000000000
     12030        96  POPC      H16X          -14.2874337522       13.6370351721        0.8267726806  MEMB      90              0.0000000000
     12031        96  POPC      H16Y          -15.0016613810       14.6078558738        2.1594753204  MEMB      90              0.0000000000
     12032        96  POPC      H16Z          -13.2979506804       14.8939424706        1.6511079655  MEMB      90              0.0000000000
     12033        97  POPC      N             -22.5246240745       -2.7283466088      -19.7277083915  MEMB      91              0.0000000000
     12034        97  POPC      C12           -21.8351323147       -3.7468957495      -18.8208033855  MEMB      91              0.0000000000
     12035        97  POPC      H12A          -22.5554659761       -4.1605023300      -18.1160505464  MEMB      91              0.0000000000
     12036        97  POPC      H12B          -21.0848974478       -3.2228071074      -18.2405709790  MEMB      91              0.0000000000
     12037        97  POPC      C13           -21.5223898748       -2.2358756511      -20.7242706977  MEMB      91              0.0000000000
     12038        97  POPC      H13A          -21.2598308786       -3.0463644769      -21.4012527970  MEMB      91              0.0000000000
     12039        97  POPC      H13B          -21.9197855633       -1.4319700181      -21.3274196430  MEMB      91              0.0000000000
     12040        97  POPC      H13C          -20.6103372545       -1.8863119358      -20.2581233968  MEMB      91              0.0000000000
     12041        97  POPC      C14           -23.6851900151       -3.3228960932      -20.4586006329  MEMB      91              0.0000000000
     12042        97  POPC      H14A          -23.3949428514       -4.2211883374      -20.9977856242  MEMB      91              0.0000000000
     12043        97  POPC      H14B          -24.4647140866       -3.6307908982      -19.7688584304  MEMB      91              0.0000000000
     12044        97  POPC      H14C          -24.1202362678       -2.5986536191      -21.1334156358  MEMB      91              0.0000000000
     12045        97  POPC      C15           -23.0463894582       -1.5921438097      -18.9060586210  MEMB      91              0.0000000000
     12046        97  POPC      H15A          -23.4954558931       -0.8372488647      -19.5440491650  MEMB      91              0.0000000000
     12047        97  POPC      H15B          -22.2516779282       -1.1151723324      -18.3356708614  MEMB      91              0.0000000000
     12048        97  POPC      H15C          -23.7941904180       -1.9355666942      -18.1984678270  MEMB      91              0.0000000000
     12049        97  POPC      C11           -21.1413818950       -4.9721748670      -19.4778311684  MEMB      91              0.0000000000
     12050        97  POPC      H11A          -20.6328131399       -5.5701581293      -18.6822732277  MEMB      91              0.0000000000
     12051        97  POPC      H11B          -20.3353179288       -4.6253682932      -20.1609312744  MEMB      91              0.0000000000
     12052        97  POPC      P             -23.0993618970       -6.6944626800      -19.4338843746  MEMB      91              0.0000000000
     12053        97  POPC      O13           -22.5645847853       -8.0649463666      -19.3484343981  MEMB      91              0.0000000000
     12054        97  POPC      O14           -24.4059421667       -6.4917430783      -20.1204620109  MEMB      91              0.0000000000
     12055        97  POPC      O12           -22.0669795451       -5.7744361896      -20.2067679457  MEMB      91              0.0000000000
     12056        97  POPC      O11           -23.2281985302       -6.0489482826      -17.9800682691  MEMB      91              0.0000000000
     12057        97  POPC      C1            -24.5314203492       -5.5142777690      -17.6711826612  MEMB      91              0.0000000000
     12058        97  POPC      HA            -25.3433537295       -6.2287711912      -17.9682156949  MEMB      91              0.0000000000
     12059        97  POPC      HB            -24.7166072842       -4.5570379279      -18.2037929760  MEMB      91              0.0000000000
     12060        97  POPC      C2            -24.7977208310       -5.2753982947      -16.1652622889  MEMB      91              0.0000000000
     12061        97  POPC      HS            -25.8863475905       -5.5112441375      -16.0627369595  MEMB      91              0.0000000000
     12062        97  POPC      O21           -24.4854232755       -3.9177678550      -15.8185892611  MEMB      91              0.0000000000
     12063        97  POPC      C21           -25.3035511060       -3.4369687718      -14.8971477463  MEMB      91              0.0000000000
     12064        97  POPC      O22           -26.3003497194       -3.9949946992      -14.4743955981  MEMB      91              0.0000000000
     12065        97  POPC      C22           -24.7263251472       -2.1382542399      -14.3633470880  MEMB      91              0.0000000000
     12066        97  POPC      H2R           -25.5313011748       -1.3754980443      -14.3429996587  MEMB      91              0.0000000000
     12067        97  POPC      H2S           -23.9361609966       -1.8022398286      -15.0612832136  MEMB      91              0.0000000000
     12068        97  POPC      C3            -24.0216964751       -6.2410715618      -15.2279167602  MEMB      91              0.0000000000
     12069        97  POPC      HX            -23.9247127539       -7.1718657821      -15.8249819763  MEMB      91              0.0000000000
     12070        97  POPC      HY            -24.6909777387       -6.4478446997      -14.3581330026  MEMB      91              0.0000000000
     12071        97  POPC      O31           -22.6905784377       -5.8235982071      -14.8409254313  MEMB      91              0.0000000000
     12072        97  POPC      C31           -22.4379708863       -5.8066651940      -13.5366724020  MEMB      91              0.0000000000
     12073        97  POPC      O32           -23.2630247776       -5.8158842162      -12.6433059342  MEMB      91              0.0000000000
     12074        97  POPC      C32           -20.9158876047       -5.8583883911      -13.3634488833  MEMB      91              0.0000000000
     12075        97  POPC      H2X           -20.4904732341       -4.9013671786      -13.7217654210  MEMB      91              0.0000000000
     12076        97  POPC      H2Y           -20.5366789127       -6.6802690837      -14.0087915383  MEMB      91              0.0000000000
     12077        97  POPC      C23           -24.1344126988       -2.3635798549      -12.9548554865  MEMB      91              0.0000000000
     12078        97  POPC      H3R           -23.0312725011       -2.2370651159      -12.9791550346  MEMB      91              0.0000000000
     12079        97  POPC      H3S           -24.3187423059       -3.4103267749      -12.6065431429  MEMB      91              0.0000000000
     12080        97  POPC      C24           -24.7346051465       -1.4312068031      -11.8987122114  MEMB      91              0.0000000000
     12081        97  POPC      H4R           -25.8406304244       -1.5750277368      -11.8976060262  MEMB      91              0.0000000000
     12082        97  POPC      H4S           -24.5320932456       -0.3675015044      -12.1564604575  MEMB      91              0.0000000000
     12083        97  POPC      C25           -24.1815239560       -1.7638988372      -10.5102204618  MEMB      91              0.0000000000
     12084        97  POPC      H5R           -23.1185630350       -1.4485367357      -10.4270867627  MEMB      91              0.0000000000
     12085        97  POPC      H5S           -24.2082768458       -2.8743598620      -10.3877644216  MEMB      91              0.0000000000
     12086        97  POPC      C26           -25.0019239585       -1.1527569824       -9.3704048148  MEMB      91              0.0000000000
     12087        97  POPC      H6R           -26.0633367357       -1.4625543177       -9.5068367945  MEMB      91              0.0000000000
     12088        97  POPC      H6S           -24.9615244416       -0.0426666308       -9.4069442801  MEMB      91              0.0000000000
     12089        97  POPC      C27           -24.5163277289       -1.6613082642       -8.0087197968  MEMB      91              0.0000000000
     12090        97  POPC      H7R           -23.6781744845       -1.0253219854       -7.6479187831  MEMB      91              0.0000000000
     12091        97  POPC      H7S           -24.1035802465       -2.6883044112       -8.1588643633  MEMB      91              0.0000000000
     12092        97  POPC      C28           -25.6455855049       -1.7438478771       -6.9711901667  MEMB      91              0.0000000000
     12093        97  POPC      H8R           -26.4734695230       -2.3557826634       -7.3960573111  MEMB      91              0.0000000000
     12094        97  POPC      H8S           -26.0699569489       -0.7348002039       -6.7921753584  MEMB      91              0.0000000000
     12095        97  POPC      C29           -25.1332350015       -2.3514415865       -5.6934012799  MEMB      91              0.0000000000
     12096        97  POPC      H91           -24.8493447484       -1.6417578218       -4.9004737307  MEMB      91              0.0000000000
     12097        97  POPC      C210          -25.0029719485       -3.6697299749       -5.4742803030  MEMB      91              0.0000000000
     12098        97  POPC      H101          -24.6277313602       -4.0040772269       -4.4964286517  MEMB      91              0.0000000000
     12099        97  POPC      C211          -25.3406655401       -4.7731201887       -6.4505305652  MEMB      91              0.0000000000
     12100        97  POPC      H11R          -25.5386418889       -4.3801417679       -7.4733664591  MEMB      91              0.0000000000
     12101        97  POPC      H11S          -26.2811816968       -5.2583586115       -6.1275378375  MEMB      91              0.0000000000
     12102        97  POPC      C212          -24.2564727570       -5.8645484290       -6.5921399658  MEMB      91              0.0000000000
     12103        97  POPC      H12R          -23.3882294364       -5.4126830263       -7.1172566463  MEMB      91              0.0000000000
     12104        97  POPC      H12S          -24.6527265500       -6.6661376949       -7.2549155277  MEMB      91              0.0000000000
     12105        97  POPC      C213          -23.7903125169       -6.4995894104       -5.2662451035  MEMB      91              0.0000000000
     12106        97  POPC      H13R          -23.3010769455       -5.7108049576       -4.6572260718  MEMB      91              0.0000000000
     12107        97  POPC      H13S          -23.0079390472       -7.2633967872       -5.4757460677  MEMB      91              0.0000000000
     12108        97  POPC      C214          -24.9341074893       -7.1638107777       -4.4767345221  MEMB      91              0.0000000000
     12109        97  POPC      H14R          -25.1371549502       -8.1586889014       -4.9334152842  MEMB      91              0.0000000000
     12110        97  POPC      H14S          -25.8627569142       -6.5703552154       -4.5806766070  MEMB      91              0.0000000000
     12111        97  POPC      C215          -24.6715147501       -7.3416351586       -2.9717063910  MEMB      91              0.0000000000
     12112        97  POPC      H15R          -23.7254859774       -7.9159936067       -2.8723741181  MEMB      91              0.0000000000
     12113        97  POPC      H15S          -25.4791340481       -7.9661805227       -2.5282608617  MEMB      91              0.0000000000
     12114        97  POPC      C216          -24.5686981418       -6.0352183392       -2.1587844179  MEMB      91              0.0000000000
     12115        97  POPC      H16R          -24.0939950640       -5.2343909386       -2.7614728638  MEMB      91              0.0000000000
     12116        97  POPC      H16S          -23.8921467522       -6.2235959443       -1.2969379145  MEMB      91              0.0000000000
     12117        97  POPC      C217          -25.8933150720       -5.5245710567       -1.5649468441  MEMB      91              0.0000000000
     12118        97  POPC      H17R          -25.6766184112       -4.6086292875       -0.9693378523  MEMB      91              0.0000000000
     12119        97  POPC      H17S          -26.2891785833       -6.2786037216       -0.8541544831  MEMB      91              0.0000000000
     12120        97  POPC      C218          -26.9981657554       -5.2276360136       -2.5769982827  MEMB      91              0.0000000000
     12121        97  POPC      H18R          -26.6360954600       -4.5457898983       -3.3734182599  MEMB      91              0.0000000000
     12122        97  POPC      H18S          -27.8648204664       -4.7491950493       -2.0777927085  MEMB      91              0.0000000000
     12123        97  POPC      H18T          -27.3515505549       -6.1683770864       -3.0501086971  MEMB      91              0.0000000000
     12124        97  POPC      C33           -20.4883068958       -6.1383417410      -11.9085008951  MEMB      91              0.0000000000
     12125        97  POPC      H3X           -19.4094435591       -6.4203085176      -11.8865026468  MEMB      91              0.0000000000
     12126        97  POPC      H3Y           -21.0581768558       -7.0067409043      -11.5055220140  MEMB      91              0.0000000000
     12127        97  POPC      C34           -20.6817165893       -4.9254333170      -10.9960290286  MEMB      91              0.0000000000
     12128        97  POPC      H4X           -21.7202539895       -4.5356267612      -11.1109662294  MEMB      91              0.0000000000
     12129        97  POPC      H4Y           -19.9737908906       -4.1164845499      -11.2830821875  MEMB      91              0.0000000000
     12130        97  POPC      C35           -20.4819824355       -5.2880849282       -9.5248602728  MEMB      91              0.0000000000
     12131        97  POPC      H5X           -19.4241520092       -5.5954635419       -9.3626488353  MEMB      91              0.0000000000
     12132        97  POPC      H5Y           -21.1341305089       -6.1561149115       -9.2705548770  MEMB      91              0.0000000000
     12133        97  POPC      C36           -20.8369412975       -4.1156742791       -8.6101111045  MEMB      91              0.0000000000
     12134        97  POPC      H6X           -21.8952852125       -3.8151419876       -8.7823499030  MEMB      91              0.0000000000
     12135        97  POPC      H6Y           -20.1899294666       -3.2469055795       -8.8696407995  MEMB      91              0.0000000000
     12136        97  POPC      C37           -20.6461307286       -4.4631576321       -7.1352551719  MEMB      91              0.0000000000
     12137        97  POPC      H7X           -19.6188226612       -4.8677012685       -7.0023977649  MEMB      91              0.0000000000
     12138        97  POPC      H7Y           -21.3436662619       -5.2700022228       -6.8290230971  MEMB      91              0.0000000000
     12139        97  POPC      C38           -20.8193687562       -3.2498798362       -6.2171837813  MEMB      91              0.0000000000
     12140        97  POPC      H8X           -21.8619066197       -2.8654224940       -6.2620358531  MEMB      91              0.0000000000
     12141        97  POPC      H8Y           -20.1444386029       -2.4441958319       -6.5868942053  MEMB      91              0.0000000000
     12142        97  POPC      C39           -20.4374777301       -3.6084731637       -4.7797385201  MEMB      91              0.0000000000
     12143        97  POPC      H9X           -19.5984219346       -4.3419568486       -4.8346190894  MEMB      91              0.0000000000
     12144        97  POPC      H9Y           -21.2853881992       -4.1186509099       -4.2722961433  MEMB      91              0.0000000000
     12145        97  POPC      C310          -19.9408348613       -2.4129972925       -3.9658816900  MEMB      91              0.0000000000
     12146        97  POPC      H10X          -20.7752535784       -1.7140323312       -3.7375446517  MEMB      91              0.0000000000
     12147        97  POPC      H10Y          -19.1965246473       -1.8600602996       -4.5860627207  MEMB      91              0.0000000000
     12148        97  POPC      C311          -19.2364848443       -2.8667996892       -2.6812039285  MEMB      91              0.0000000000
     12149        97  POPC      H11X          -18.4378662515       -2.1348917534       -2.4330603932  MEMB      91              0.0000000000
     12150        97  POPC      H11Y          -18.7467236729       -3.8500361972       -2.8522469403  MEMB      91              0.0000000000
     12151        97  POPC      C312          -20.1702521198       -2.9339064101       -1.4725118884  MEMB      91              0.0000000000
     12152        97  POPC      H12X          -21.1730249338       -3.2961847712       -1.7961645781  MEMB      91              0.0000000000
     12153        97  POPC      H12Y          -20.2833768607       -1.8937217085       -1.0950647790  MEMB      91              0.0000000000
     12154        97  POPC      C313          -19.6894815046       -3.8395726229       -0.3264006479  MEMB      91              0.0000000000
     12155        97  POPC      H13X          -19.8471413271       -4.8920266086       -0.6203899955  MEMB      91              0.0000000000
     12156        97  POPC      H13Y          -20.3171348090       -3.6571339284        0.5731682569  MEMB      91              0.0000000000
     12157        97  POPC      C314          -18.2112696247       -3.7293840215        0.0555186879  MEMB      91              0.0000000000
     12158        97  POPC      H14X          -18.0500710209       -2.7298986856        0.5088563320  MEMB      91              0.0000000000
     12159        97  POPC      H14Y          -17.5687490375       -3.8134757238       -0.8452065733  MEMB      91              0.0000000000
     12160        97  POPC      C315          -17.7878617577       -4.8357860425        1.0351299961  MEMB      91              0.0000000000
     12161        97  POPC      H15X          -18.6041506035       -4.9872263937        1.7758593340  MEMB      91              0.0000000000
     12162        97  POPC      H15Y          -16.8937021297       -4.5031601148        1.6006605379  MEMB      91              0.0000000000
     12163        97  POPC      C316          -17.4255419432       -6.1583497274        0.3547546544  MEMB      91              0.0000000000
     12164        97  POPC      H16X          -17.2089264804       -6.9392754804        1.1146927180  MEMB      91              0.0000000000
     12165        97  POPC      H16Y          -16.5287579732       -6.0298907731       -0.2877654632  MEMB      91              0.0000000000
     12166        97  POPC      H16Z          -18.2642652502       -6.5066475307       -0.2834675937  MEMB      91              0.0000000000
     12167        98  POPC      N              19.2770227015       10.7691899189      -20.1109924407  MEMB      92              0.0000000000
     12168        98  POPC      C12            20.3230910599        9.9390448900      -20.8430261333  MEMB      92              0.0000000000
     12169        98  POPC      H12A           20.2206634321       10.0634487170      -21.9125354764  MEMB      92              0.0000000000
     12170        98  POPC      H12B           20.1288379305        8.8921475494      -20.6273536226  MEMB      92              0.0000000000
     12171        98  POPC      C13            19.2223212880       10.2978016335      -18.6890324027  MEMB      92              0.0000000000
     12172        98  POPC      H13A           18.5475501296       10.8939716621      -18.0992101735  MEMB      92              0.0000000000
     12173        98  POPC      H13B           18.9566937808        9.2440762770      -18.6440584692  MEMB      92              0.0000000000
     12174        98  POPC      H13C           20.2328600934       10.3690391573      -18.2766917178  MEMB      92              0.0000000000
     12175        98  POPC      C14            19.6860838865       12.2178547424      -20.1735692293  MEMB      92              0.0000000000
     12176        98  POPC      H14A           20.6062174673       12.3554695655      -19.5993354083  MEMB      92              0.0000000000
     12177        98  POPC      H14B           19.9048236769       12.5214524057      -21.1973461023  MEMB      92              0.0000000000
     12178        98  POPC      H14C           18.9086106250       12.8778863689      -19.8148876634  MEMB      92              0.0000000000
     12179        98  POPC      C15            17.9389213426       10.5405496022      -20.7063514403  MEMB      92              0.0000000000
     12180        98  POPC      H15A           17.8714554572       10.8953487783      -21.7298450590  MEMB      92              0.0000000000
     12181        98  POPC      H15B           17.1664611456       11.0293558644      -20.1267335025  MEMB      92              0.0000000000
     12182        98  POPC      H15C           17.6982131939        9.4692965081      -20.7466502388  MEMB      92              0.0000000000
     12183        98  POPC      C11            21.7918234609       10.2051605008      -20.4600589607  MEMB      92              0.0000000000
     12184        98  POPC      H11A           22.1154706908       11.2262171301      -20.7652395114  MEMB      92              0.0000000000
     12185        98  POPC      H11B           22.4204287998        9.4679936311      -21.0208343754  MEMB      92              0.0000000000
     12186        98  POPC      P              23.3706279669        9.9632327580      -18.4244030764  MEMB      92              0.0000000000
     12187        98  POPC      O13            24.2531418205        9.3346685565      -19.4241374304  MEMB      92              0.0000000000
     12188        98  POPC      O14            23.2457339938        9.3654089046      -17.0739605397  MEMB      92              0.0000000000
     12189        98  POPC      O12            21.9342425107       10.0510518123      -19.0534261476  MEMB      92              0.0000000000
     12190        98  POPC      O11            23.7175531464       11.4883338769      -18.2572739938  MEMB      92              0.0000000000
     12191        98  POPC      C1             22.9544698693       12.3443916172      -17.3976976741  MEMB      92              0.0000000000
     12192        98  POPC      HA             22.0085015933       11.8755038072      -17.0338706682  MEMB      92              0.0000000000
     12193        98  POPC      HB             22.6888845375       13.2570347350      -17.9765714153  MEMB      92              0.0000000000
     12194        98  POPC      C2             23.7594203077       12.7828054380      -16.1391437361  MEMB      92              0.0000000000
     12195        98  POPC      HS             24.6982408429       13.2683080405      -16.4965888077  MEMB      92              0.0000000000
     12196        98  POPC      O21            23.9876462803       11.6505255998      -15.2833213947  MEMB      92              0.0000000000
     12197        98  POPC      C21            25.2309870481       11.2279541253      -15.1729487670  MEMB      92              0.0000000000
     12198        98  POPC      O22            26.2134578923       11.7624989964      -15.6639460786  MEMB      92              0.0000000000
     12199        98  POPC      C22            25.2298333687        9.9618396784      -14.2999922895  MEMB      92              0.0000000000
     12200        98  POPC      H2R            25.2379898743        9.1135558932      -15.0181633240  MEMB      92              0.0000000000
     12201        98  POPC      H2S            24.2852875249        9.9066648539      -13.7229220166  MEMB      92              0.0000000000
     12202        98  POPC      C3             22.9667081993       13.8231529144      -15.3033413720  MEMB      92              0.0000000000
     12203        98  POPC      HX             22.6345791436       14.6371078727      -15.9804983272  MEMB      92              0.0000000000
     12204        98  POPC      HY             23.6694695202       14.2825277141      -14.5694075551  MEMB      92              0.0000000000
     12205        98  POPC      O31            21.8068985630       13.2001439051      -14.6983161918  MEMB      92              0.0000000000
     12206        98  POPC      C31            21.9402872828       12.9115804269      -13.3993463664  MEMB      92              0.0000000000
     12207        98  POPC      O32            22.7652606992       13.4031453733      -12.6512631485  MEMB      92              0.0000000000
     12208        98  POPC      C32            20.9479233447       11.8123197709      -13.0145082288  MEMB      92              0.0000000000
     12209        98  POPC      H2X            21.4937717739       10.8512652895      -13.0219726388  MEMB      92              0.0000000000
     12210        98  POPC      H2Y            20.1741548638       11.7489415218      -13.8032758330  MEMB      92              0.0000000000
     12211        98  POPC      C23            26.4481423901        9.8452083754      -13.3548067952  MEMB      92              0.0000000000
     12212        98  POPC      H3R            27.3194214092       10.4078562138      -13.7590272654  MEMB      92              0.0000000000
     12213        98  POPC      H3S            26.7365983363        8.7651591880      -13.3279139693  MEMB      92              0.0000000000
     12214        98  POPC      C24            26.1945723662       10.2433033500      -11.8907401927  MEMB      92              0.0000000000
     12215        98  POPC      H4R            27.1639604841       10.1667081179      -11.3484185177  MEMB      92              0.0000000000
     12216        98  POPC      H4S            25.5024549674        9.5025363176      -11.4299292174  MEMB      92              0.0000000000
     12217        98  POPC      C25            25.6269601430       11.6482379707      -11.6484431986  MEMB      92              0.0000000000
     12218        98  POPC      H5R            24.5736393899       11.6789438327      -12.0078591320  MEMB      92              0.0000000000
     12219        98  POPC      H5S            26.2053583513       12.4082533066      -12.2188227010  MEMB      92              0.0000000000
     12220        98  POPC      C26            25.6711413911       11.9971946809      -10.1493822779  MEMB      92              0.0000000000
     12221        98  POPC      H6R            26.7272693952       12.1254403773       -9.8329312470  MEMB      92              0.0000000000
     12222        98  POPC      H6S            25.2853160347       11.1293661245       -9.5761336887  MEMB      92              0.0000000000
     12223        98  POPC      C27            24.8631157186       13.2490456329       -9.7702622428  MEMB      92              0.0000000000
     12224        98  POPC      H7R            23.9400195242       13.2908375678      -10.3878991607  MEMB      92              0.0000000000
     12225        98  POPC      H7S            25.4684562329       14.1428198020      -10.0378557540  MEMB      92              0.0000000000
     12226        98  POPC      C28            24.4628514549       13.2898202147       -8.2776455942  MEMB      92              0.0000000000
     12227        98  POPC      H8R            25.3385072358       12.9703617131       -7.6728177748  MEMB      92              0.0000000000
     12228        98  POPC      H8S            23.6610671293       12.5416876612       -8.0951541897  MEMB      92              0.0000000000
     12229        98  POPC      C29            24.0030101027       14.6656573238       -7.8640007338  MEMB      92              0.0000000000
     12230        98  POPC      H91            24.0546569314       15.4222819051       -8.6630402159  MEMB      92              0.0000000000
     12231        98  POPC      C210           23.5641947561       15.0430675240       -6.6492605170  MEMB      92              0.0000000000
     12232        98  POPC      H101           23.2936540948       16.0995265963       -6.5039404165  MEMB      92              0.0000000000
     12233        98  POPC      C211           23.4232810481       14.1940439469       -5.4071143490  MEMB      92              0.0000000000
     12234        98  POPC      H11R           23.9390428486       14.7126787457       -4.5694051182  MEMB      92              0.0000000000
     12235        98  POPC      H11S           23.9187650445       13.2032872528       -5.5166305827  MEMB      92              0.0000000000
     12236        98  POPC      C212           21.9477509395       13.9601294326       -5.0125490040  MEMB      92              0.0000000000
     12237        98  POPC      H12R           21.5417216311       13.1403251018       -5.6477160963  MEMB      92              0.0000000000
     12238        98  POPC      H12S           21.3423769529       14.8723847518       -5.2218873740  MEMB      92              0.0000000000
     12239        98  POPC      C213           21.7349790215       13.6088259934       -3.5251073311  MEMB      92              0.0000000000
     12240        98  POPC      H13R           22.4084763177       12.7800011163       -3.2206267106  MEMB      92              0.0000000000
     12241        98  POPC      H13S           20.6849961597       13.2566285347       -3.4000675034  MEMB      92              0.0000000000
     12242        98  POPC      C214           21.9421275166       14.8232233197       -2.6076426445  MEMB      92              0.0000000000
     12243        98  POPC      H14R           21.5067705941       15.7097408019       -3.1260811100  MEMB      92              0.0000000000
     12244        98  POPC      H14S           23.0280333782       15.0129403096       -2.4898445806  MEMB      92              0.0000000000
     12245        98  POPC      C215           21.2548622985       14.7453039483       -1.2323765820  MEMB      92              0.0000000000
     12246        98  POPC      H15R           20.2059333205       14.4091531641       -1.3438219748  MEMB      92              0.0000000000
     12247        98  POPC      H15S           21.2242577663       15.7878927855       -0.8369231762  MEMB      92              0.0000000000
     12248        98  POPC      C216           21.9610254444       13.8773984367       -0.1833692527  MEMB      92              0.0000000000
     12249        98  POPC      H16R           23.0393906240       13.7925828391       -0.4511717532  MEMB      92              0.0000000000
     12250        98  POPC      H16S           21.5327099264       12.8507210400       -0.1912863595  MEMB      92              0.0000000000
     12251        98  POPC      C217           21.8827349687       14.4768100749        1.2336963269  MEMB      92              0.0000000000
     12252        98  POPC      H17R           22.4274511678       15.4477815126        1.2121388514  MEMB      92              0.0000000000
     12253        98  POPC      H17S           22.4199713626       13.7934901103        1.9315819866  MEMB      92              0.0000000000
     12254        98  POPC      C218           20.4861576657       14.7490276079        1.7974011841  MEMB      92              0.0000000000
     12255        98  POPC      H18R           19.9225578633       15.4528557140        1.1483886891  MEMB      92              0.0000000000
     12256        98  POPC      H18S           20.5520313622       15.1996325805        2.8118501624  MEMB      92              0.0000000000
     12257        98  POPC      H18T           19.9121409148       13.8032834800        1.8803865028  MEMB      92              0.0000000000
     12258        98  POPC      C33            20.2363166011       12.0627725669      -11.6619684278  MEMB      92              0.0000000000
     12259        98  POPC      H3X            19.3331689152       11.4111252966      -11.6312237615  MEMB      92              0.0000000000
     12260        98  POPC      H3Y            19.8714732059       13.1132018816      -11.6115518397  MEMB      92              0.0000000000
     12261        98  POPC      C34            21.0870712305       11.7604751213      -10.4237310720  MEMB      92              0.0000000000
     12262        98  POPC      H4X            20.4816051212       11.9645665230       -9.5114841776  MEMB      92              0.0000000000
     12263        98  POPC      H4Y            21.9569203327       12.4521546067      -10.3963867110  MEMB      92              0.0000000000
     12264        98  POPC      C35            21.5984106876       10.3171310237      -10.3619444525  MEMB      92              0.0000000000
     12265        98  POPC      H5X            22.2232146231       10.0869267320      -11.2525400686  MEMB      92              0.0000000000
     12266        98  POPC      H5Y            20.7472354568        9.6099781928      -10.3665730947  MEMB      92              0.0000000000
     12267        98  POPC      C36            22.4504816218       10.0765610942       -9.1214746735  MEMB      92              0.0000000000
     12268        98  POPC      H6X            21.9349643246       10.4717366551       -8.2187027561  MEMB      92              0.0000000000
     12269        98  POPC      H6Y            23.3834847496       10.6569221969       -9.2454356645  MEMB      92              0.0000000000
     12270        98  POPC      C37            22.7825769358        8.5977496129       -8.9244123256  MEMB      92              0.0000000000
     12271        98  POPC      H7X            22.9552106111        8.1244413203       -9.9184922661  MEMB      92              0.0000000000
     12272        98  POPC      H7Y            21.8916598623        8.1122542249       -8.4704931555  MEMB      92              0.0000000000
     12273        98  POPC      C38            24.0228051109        8.3471514597       -8.0541736189  MEMB      92              0.0000000000
     12274        98  POPC      H8X            24.9302465408        8.5466677032       -8.6696514026  MEMB      92              0.0000000000
     12275        98  POPC      H8Y            24.0350395268        7.2722899282       -7.7709261645  MEMB      92              0.0000000000
     12276        98  POPC      C39            24.1049124128        9.1959224888       -6.7763826386  MEMB      92              0.0000000000
     12277        98  POPC      H9X            24.1629384368       10.2731379082       -7.0507019173  MEMB      92              0.0000000000
     12278        98  POPC      H9Y            25.0482233719        8.9416564678       -6.2417165385  MEMB      92              0.0000000000
     12279        98  POPC      C310           22.9229523005        8.9866900721       -5.8198169771  MEMB      92              0.0000000000
     12280        98  POPC      H10X           22.9199387982        7.9282657493       -5.4787502407  MEMB      92              0.0000000000
     12281        98  POPC      H10Y           21.9651904043        9.1717336113       -6.3547965264  MEMB      92              0.0000000000
     12282        98  POPC      C311           22.9929605505        9.9380102805       -4.6194586288  MEMB      92              0.0000000000
     12283        98  POPC      H11X           23.0239850637       10.9839167462       -5.0032558312  MEMB      92              0.0000000000
     12284        98  POPC      H11Y           23.9397561546        9.7586929738       -4.0626749241  MEMB      92              0.0000000000
     12285        98  POPC      C312           21.8056173576        9.8074619721       -3.6535816157  MEMB      92              0.0000000000
     12286        98  POPC      H12X           20.8567948048       10.0152268252       -4.1948150909  MEMB      92              0.0000000000
     12287        98  POPC      H12Y           21.9247486852       10.5883095953       -2.8695539783  MEMB      92              0.0000000000
     12288        98  POPC      C313           21.7281198005        8.4293007773       -2.9805251824  MEMB      92              0.0000000000
     12289        98  POPC      H13X           22.7266554953        8.1978148447       -2.5439129836  MEMB      92              0.0000000000
     12290        98  POPC      H13Y           21.5103051293        7.6515620362       -3.7461920909  MEMB      92              0.0000000000
     12291        98  POPC      C314           20.6793372368        8.3298536626       -1.8589680703  MEMB      92              0.0000000000
     12292        98  POPC      H14X           20.7875930907        7.3277857681       -1.3871324765  MEMB      92              0.0000000000
     12293        98  POPC      H14Y           19.6538735706        8.3967121942       -2.2861236639  MEMB      92              0.0000000000
     12294        98  POPC      C315           20.8438213802        9.3862580206       -0.7586315702  MEMB      92              0.0000000000
     12295        98  POPC      H15X           20.4623066696       10.3650790170       -1.1266258008  MEMB      92              0.0000000000
     12296        98  POPC      H15Y           21.9312278405        9.5189280439       -0.5605248289  MEMB      92              0.0000000000
     12297        98  POPC      C316           20.1404466940        9.0157475347        0.5493024094  MEMB      92              0.0000000000
     12298        98  POPC      H16X           20.5461923567        8.0631458838        0.9528360304  MEMB      92              0.0000000000
     12299        98  POPC      H16Y           19.0488646840        8.8902248811        0.3822563353  MEMB      92              0.0000000000
     12300        98  POPC      H16Z           20.2943282112        9.8119842432        1.3095830435  MEMB      92              0.0000000000
     12301        99  POPC      N             -12.7888581334      -22.9260111629      -17.8256287157  MEMB      93              0.0000000000
     12302        99  POPC      C12           -12.3692382863      -21.6190797416      -18.4882561310  MEMB      93              0.0000000000
     12303        99  POPC      H12A          -11.4021936295      -21.2971432953      -18.0971393418  MEMB      93              0.0000000000
     12304        99  POPC      H12B          -13.0820546188      -20.8398256187      -18.2244659065  MEMB      93              0.0000000000
     12305        99  POPC      C13           -14.0283014287      -23.4600433093      -18.4797973218  MEMB      93              0.0000000000
     12306        99  POPC      H13A          -14.3489269501      -24.4113495828      -18.0761276070  MEMB      93              0.0000000000
     12307        99  POPC      H13B          -14.8532731518      -22.7605549004      -18.4139619484  MEMB      93              0.0000000000
     12308        99  POPC      H13C          -13.8404208963      -23.6180824285      -19.5458928327  MEMB      93              0.0000000000
     12309        99  POPC      C14           -11.6873018366      -23.9155635257      -18.0052002670  MEMB      93              0.0000000000
     12310        99  POPC      H14A          -11.4939483161      -24.0303031852      -19.0717827107  MEMB      93              0.0000000000
     12311        99  POPC      H14B          -10.7697816414      -23.5287309638      -17.5816198601  MEMB      93              0.0000000000
     12312        99  POPC      H14C          -11.9281720916      -24.8750330478      -17.5745320044  MEMB      93              0.0000000000
     12313        99  POPC      C15           -13.0444139164      -22.6793543228      -16.3716180113  MEMB      93              0.0000000000
     12314        99  POPC      H15A          -13.4740878933      -23.5544275131      -15.8957021784  MEMB      93              0.0000000000
     12315        99  POPC      H15B          -13.7432125238      -21.8505067681      -16.2757770322  MEMB      93              0.0000000000
     12316        99  POPC      H15C          -12.1445328571      -22.4025845276      -15.8357044829  MEMB      93              0.0000000000
     12317        99  POPC      C11           -12.2121276530      -21.6442472600      -20.0231202522  MEMB      93              0.0000000000
     12318        99  POPC      H11A          -12.1648988339      -20.5773803461      -20.3595391702  MEMB      93              0.0000000000
     12319        99  POPC      H11B          -13.1227018541      -22.0437641172      -20.5126692770  MEMB      93              0.0000000000
     12320        99  POPC      P              -9.7481187284      -21.6337934957      -20.7822291016  MEMB      93              0.0000000000
     12321        99  POPC      O13           -10.0684432706      -20.7171487781      -21.9062725746  MEMB      93              0.0000000000
     12322        99  POPC      O14            -8.6419791030      -22.5887943091      -20.9338241233  MEMB      93              0.0000000000
     12323        99  POPC      O12           -11.0761766146      -22.4302666417      -20.4241347798  MEMB      93              0.0000000000
     12324        99  POPC      O11            -9.5492112876      -20.7849252831      -19.4643747712  MEMB      93              0.0000000000
     12325        99  POPC      C1             -8.2291999916      -20.3972028876      -19.0841010423  MEMB      93              0.0000000000
     12326        99  POPC      HA             -7.8984284039      -19.5409932065      -19.7038703034  MEMB      93              0.0000000000
     12327        99  POPC      HB             -7.4879909724      -21.2183454239      -19.2558746561  MEMB      93              0.0000000000
     12328        99  POPC      C2             -8.1084617879      -20.0038382683      -17.5767274234  MEMB      93              0.0000000000
     12329        99  POPC      HS             -7.0184991327      -19.9242456775      -17.3497556984  MEMB      93              0.0000000000
     12330        99  POPC      O21            -8.7411007584      -20.9892743221      -16.7278029125  MEMB      93              0.0000000000
     12331        99  POPC      C21            -8.0713089146      -22.1426309874      -16.6634251117  MEMB      93              0.0000000000
     12332        99  POPC      O22            -6.9785692279      -22.3670098482      -17.1524867585  MEMB      93              0.0000000000
     12333        99  POPC      C22            -8.8529944862      -23.1264341949      -15.7929522488  MEMB      93              0.0000000000
     12334        99  POPC      H2R            -8.8948351551      -24.0962989222      -16.3298380404  MEMB      93              0.0000000000
     12335        99  POPC      H2S            -9.8807489001      -22.7401527944      -15.6454597018  MEMB      93              0.0000000000
     12336        99  POPC      C3             -8.6960724156      -18.5528252690      -17.2830292385  MEMB      93              0.0000000000
     12337        99  POPC      HX             -8.3573341912      -17.9772315323      -18.1656752965  MEMB      93              0.0000000000
     12338        99  POPC      HY             -8.1527331245      -18.1857295930      -16.3813688191  MEMB      93              0.0000000000
     12339        99  POPC      O31           -10.1228641475      -18.3303914438      -17.0913768378  MEMB      93              0.0000000000
     12340        99  POPC      C31           -10.4198202767      -16.9871291676      -17.0455803334  MEMB      93              0.0000000000
     12341        99  POPC      O32            -9.6809429340      -16.1157013756      -17.4513378872  MEMB      93              0.0000000000
     12342        99  POPC      C32           -11.7341583311      -16.7769794832      -16.3489374748  MEMB      93              0.0000000000
     12343        99  POPC      H2X           -12.4708454916      -17.4698469946      -16.7883678019  MEMB      93              0.0000000000
     12344        99  POPC      H2Y           -12.0469679940      -15.7270004780      -16.5505980826  MEMB      93              0.0000000000
     12345        99  POPC      C23            -8.1648061496      -23.3121314608      -14.4257407932  MEMB      93              0.0000000000
     12346        99  POPC      H3R            -7.9186114398      -22.3211212184      -13.9771270303  MEMB      93              0.0000000000
     12347        99  POPC      H3S            -7.1980422354      -23.8344845765      -14.6138814714  MEMB      93              0.0000000000
     12348        99  POPC      C24            -8.9923397048      -24.1216630462      -13.4099775239  MEMB      93              0.0000000000
     12349        99  POPC      H4R            -8.2861135755      -24.7380130509      -12.8083134652  MEMB      93              0.0000000000
     12350        99  POPC      H4S            -9.6815423410      -24.8272412184      -13.9188223837  MEMB      93              0.0000000000
     12351        99  POPC      C25            -9.7286648803      -23.2499638618      -12.3875426584  MEMB      93              0.0000000000
     12352        99  POPC      H5R           -10.5696361264      -22.7083981453      -12.8671024374  MEMB      93              0.0000000000
     12353        99  POPC      H5S            -9.0003185092      -22.4888352202      -12.0193047369  MEMB      93              0.0000000000
     12354        99  POPC      C26           -10.2166712217      -24.0321643951      -11.1558268048  MEMB      93              0.0000000000
     12355        99  POPC      H6R            -9.4393710586      -24.7709834777      -10.8576779546  MEMB      93              0.0000000000
     12356        99  POPC      H6S           -11.1401677000      -24.5961888558      -11.4043817055  MEMB      93              0.0000000000
     12357        99  POPC      C27           -10.4580057834      -23.0865334738       -9.9707299167  MEMB      93              0.0000000000
     12358        99  POPC      H7R           -11.1555076706      -22.2957599467      -10.3195975203  MEMB      93              0.0000000000
     12359        99  POPC      H7S            -9.4970121116      -22.5903028934       -9.7042103395  MEMB      93              0.0000000000
     12360        99  POPC      C28           -11.0700825317      -23.7331169631       -8.7141363848  MEMB      93              0.0000000000
     12361        99  POPC      H8R           -12.0699120867      -24.1342120070       -8.9861986823  MEMB      93              0.0000000000
     12362        99  POPC      H8S           -11.2481431920      -22.9198858228       -7.9724464066  MEMB      93              0.0000000000
     12363        99  POPC      C29           -10.2371020801      -24.8232588094       -8.0941192063  MEMB      93              0.0000000000
     12364        99  POPC      H91           -10.5249055185      -25.8472077812       -8.3792464077  MEMB      93              0.0000000000
     12365        99  POPC      C210           -9.1952186115      -24.6571401932       -7.2609141377  MEMB      93              0.0000000000
     12366        99  POPC      H101           -8.7010947713      -25.5561087011       -6.8634891729  MEMB      93              0.0000000000
     12367        99  POPC      C211           -8.6240708737      -23.3506821021       -6.7643845917  MEMB      93              0.0000000000
     12368        99  POPC      H11R           -8.7862008364      -22.5340035880       -7.5043156288  MEMB      93              0.0000000000
     12369        99  POPC      H11S           -7.5215906024      -23.4570540088       -6.6528764133  MEMB      93              0.0000000000
     12370        99  POPC      C212           -9.1979434926      -22.8758199519       -5.4113588023  MEMB      93              0.0000000000
     12371        99  POPC      H12R          -10.2678536190      -22.6057925810       -5.5509000688  MEMB      93              0.0000000000
     12372        99  POPC      H12S           -8.6650117505      -21.9460340587       -5.1200499918  MEMB      93              0.0000000000
     12373        99  POPC      C213           -9.0903051304      -23.9307639995       -4.2957421098  MEMB      93              0.0000000000
     12374        99  POPC      H13R           -8.2451425824      -24.6114198441       -4.5132437867  MEMB      93              0.0000000000
     12375        99  POPC      H13S          -10.0007201833      -24.5560467530       -4.3732875937  MEMB      93              0.0000000000
     12376        99  POPC      C214           -8.9544945320      -23.4091886068       -2.8457170232  MEMB      93              0.0000000000
     12377        99  POPC      H14R           -8.9210305900      -24.2950073866       -2.1711698228  MEMB      93              0.0000000000
     12378        99  POPC      H14S           -9.8655311692      -22.8454049069       -2.5747525059  MEMB      93              0.0000000000
     12379        99  POPC      C215           -7.6979653407      -22.5692954255       -2.5617710316  MEMB      93              0.0000000000
     12380        99  POPC      H15R           -7.3444327977      -22.1035650700       -3.5077200626  MEMB      93              0.0000000000
     12381        99  POPC      H15S           -6.8920316564      -23.2499423339       -2.2038377058  MEMB      93              0.0000000000
     12382        99  POPC      C216           -7.8310388144      -21.4429427810       -1.5281268561  MEMB      93              0.0000000000
     12383        99  POPC      H16R           -8.1912580765      -21.8409560459       -0.5559512151  MEMB      93              0.0000000000
     12384        99  POPC      H16S           -8.5543750599      -20.6825584900       -1.8846825750  MEMB      93              0.0000000000
     12385        99  POPC      C217           -6.4680862073      -20.7622781678       -1.3571488032  MEMB      93              0.0000000000
     12386        99  POPC      H17R           -6.0425237657      -20.6102447714       -2.3764349503  MEMB      93              0.0000000000
     12387        99  POPC      H17S           -5.8026415556      -21.4718972294       -0.8228669208  MEMB      93              0.0000000000
     12388        99  POPC      C218           -6.4766829276      -19.4157290440       -0.6385779385  MEMB      93              0.0000000000
     12389        99  POPC      H18R           -7.3279235416      -18.7892478232       -0.9803605791  MEMB      93              0.0000000000
     12390        99  POPC      H18S           -5.5371700272      -18.8641823581       -0.8576699046  MEMB      93              0.0000000000
     12391        99  POPC      H18T           -6.5406521135      -19.5446495267        0.4600886725  MEMB      93              0.0000000000
     12392        99  POPC      C33           -11.5902996605      -16.9983969691      -14.8298325059  MEMB      93              0.0000000000
     12393        99  POPC      H3X           -12.4304257969      -16.4407546858      -14.3594691693  MEMB      93              0.0000000000
     12394        99  POPC      H3Y           -10.6697438756      -16.5293668858      -14.4267451377  MEMB      93              0.0000000000
     12395        99  POPC      C34           -11.6867117612      -18.4767668883      -14.4130856140  MEMB      93              0.0000000000
     12396        99  POPC      H4X           -12.1147515574      -19.0831722974      -15.2430965922  MEMB      93              0.0000000000
     12397        99  POPC      H4Y           -12.4128445438      -18.5550228815      -13.5745118964  MEMB      93              0.0000000000
     12398        99  POPC      C35           -10.3528785249      -19.0932196293      -13.9636339783  MEMB      93              0.0000000000
     12399        99  POPC      H5X            -9.5573842540      -18.3167069895      -13.9285352686  MEMB      93              0.0000000000
     12400        99  POPC      H5Y           -10.0427473467      -19.8494421425      -14.7210981859  MEMB      93              0.0000000000
     12401        99  POPC      C36           -10.4306781660      -19.7604488582      -12.5840290980  MEMB      93              0.0000000000
     12402        99  POPC      H6X            -9.4696414040      -20.2826984462      -12.3808878472  MEMB      93              0.0000000000
     12403        99  POPC      H6Y           -11.2373894123      -20.5273016417      -12.5921661870  MEMB      93              0.0000000000
     12404        99  POPC      C37           -10.6981610897      -18.7780172475      -11.4329745170  MEMB      93              0.0000000000
     12405        99  POPC      H7X           -11.6270864026      -18.1976590715      -11.6291043219  MEMB      93              0.0000000000
     12406        99  POPC      H7Y            -9.8592329424      -18.0525123346      -11.3644821822  MEMB      93              0.0000000000
     12407        99  POPC      C38           -10.8533794794      -19.5042910503      -10.0931773586  MEMB      93              0.0000000000
     12408        99  POPC      H8X            -9.9011901664      -20.0204383658       -9.8373993126  MEMB      93              0.0000000000
     12409        99  POPC      H8Y           -11.6452605463      -20.2783685188      -10.2014107251  MEMB      93              0.0000000000
     12410        99  POPC      C39           -11.2638801485      -18.5788376712       -8.9468125617  MEMB      93              0.0000000000
     12411        99  POPC      H9X           -12.2686750656      -18.1609025361       -9.1730229890  MEMB      93              0.0000000000
     12412        99  POPC      H9Y           -10.5613433809      -17.7230337684       -8.8679258263  MEMB      93              0.0000000000
     12413        99  POPC      C310          -11.3297054003      -19.3222158237       -7.6098616277  MEMB      93              0.0000000000
     12414        99  POPC      H10X          -10.3260736938      -19.7259408648       -7.3506247332  MEMB      93              0.0000000000
     12415        99  POPC      H10Y          -12.0196406841      -20.1899983863       -7.7248264252  MEMB      93              0.0000000000
     12416        99  POPC      C311          -11.8470966274      -18.4283694407       -6.4774590623  MEMB      93              0.0000000000
     12417        99  POPC      H11X          -12.7738620192      -17.9236593987       -6.8380184056  MEMB      93              0.0000000000
     12418        99  POPC      H11Y          -11.1004351053      -17.6407750749       -6.2380460610  MEMB      93              0.0000000000
     12419        99  POPC      C312          -12.1943534024      -19.2235729652       -5.2174332985  MEMB      93              0.0000000000
     12420        99  POPC      H12X          -12.7044519028      -20.1649316257       -5.5237783362  MEMB      93              0.0000000000
     12421        99  POPC      H12Y          -12.9022794885      -18.6328471623       -4.5953179655  MEMB      93              0.0000000000
     12422        99  POPC      C313          -10.9844766204      -19.5653756507       -4.3506172541  MEMB      93              0.0000000000
     12423        99  POPC      H13X          -10.6775826929      -18.6633923564       -3.7778490754  MEMB      93              0.0000000000
     12424        99  POPC      H13Y          -10.1283128366      -19.8519924078       -5.0043008789  MEMB      93              0.0000000000
     12425        99  POPC      C314          -11.2591983880      -20.7352325030       -3.3990430409  MEMB      93              0.0000000000
     12426        99  POPC      H14X          -10.3622452604      -20.8672776409       -2.7638399166  MEMB      93              0.0000000000
     12427        99  POPC      H14Y          -11.3958713078      -21.6603344029       -4.0023295562  MEMB      93              0.0000000000
     12428        99  POPC      C315          -12.4732750335      -20.6091805948       -2.4742678933  MEMB      93              0.0000000000
     12429        99  POPC      H15X          -13.3996009431      -20.5050707466       -3.0813294022  MEMB      93              0.0000000000
     12430        99  POPC      H15Y          -12.3728078494      -19.6915721382       -1.8550251270  MEMB      93              0.0000000000
     12431        99  POPC      C316          -12.6084569776      -21.8331058813       -1.5616982644  MEMB      93              0.0000000000
     12432        99  POPC      H16X          -11.6975324497      -21.9460980517       -0.9338783899  MEMB      93              0.0000000000
     12433        99  POPC      H16Y          -12.7291618628      -22.7548679048       -2.1717992155  MEMB      93              0.0000000000
     12434        99  POPC      H16Z          -13.4901072644      -21.7319222153       -0.8944331526  MEMB      93              0.0000000000
     12435       100  POPC      N              16.9319801278      -16.7479278778      -19.5126915703  MEMB      94              0.0000000000
     12436       100  POPC      C12            16.6158947882      -15.3943056114      -18.8723497600  MEMB      94              0.0000000000
     12437       100  POPC      H12A           15.6735953369      -15.4685565441      -18.3444730020  MEMB      94              0.0000000000
     12438       100  POPC      H12B           16.5029799660      -14.6471061154      -19.6611914138  MEMB      94              0.0000000000
     12439       100  POPC      C13            17.1666144620      -17.7856818097      -18.4554679365  MEMB      94              0.0000000000
     12440       100  POPC      H13A           16.2563408992      -17.9616275392      -17.8905138756  MEMB      94              0.0000000000
     12441       100  POPC      H13B           17.4558622355      -18.7295237490      -18.9024568966  MEMB      94              0.0000000000
     12442       100  POPC      H13C           17.9498437312      -17.4459572876      -17.7839610731  MEMB      94              0.0000000000
     12443       100  POPC      C14            15.7869849151      -17.1647813518      -20.3662415440  MEMB      94              0.0000000000
     12444       100  POPC      H14A           16.0259883538      -18.0499497913      -20.9430173608  MEMB      94              0.0000000000
     12445       100  POPC      H14B           14.8800719469      -17.3540416309      -19.7973076569  MEMB      94              0.0000000000
     12446       100  POPC      H14C           15.5376872594      -16.3963525447      -21.0990441421  MEMB      94              0.0000000000
     12447       100  POPC      C15            18.1321845930      -16.6084377852      -20.4030792332  MEMB      94              0.0000000000
     12448       100  POPC      H15A           17.8837528724      -15.9988778257      -21.2721117208  MEMB      94              0.0000000000
     12449       100  POPC      H15B           18.5125430450      -17.5608013961      -20.7483163996  MEMB      94              0.0000000000
     12450       100  POPC      H15C           18.8993048960      -16.0444664635      -19.8697726914  MEMB      94              0.0000000000
     12451       100  POPC      C11            17.6446142125      -14.7986633033      -17.8799905426  MEMB      94              0.0000000000
     12452       100  POPC      H11A           17.8630645087      -15.5281582174      -17.0718330737  MEMB      94              0.0000000000
     12453       100  POPC      H11B           17.2007766369      -13.9155345140      -17.3582472334  MEMB      94              0.0000000000
     12454       100  POPC      P              19.0066388021      -13.0384958110      -19.2378992923  MEMB      94              0.0000000000
     12455       100  POPC      O13            17.8061925170      -12.7535065789      -20.0675155256  MEMB      94              0.0000000000
     12456       100  POPC      O14            20.2932773979      -13.0237560663      -19.9633141358  MEMB      94              0.0000000000
     12457       100  POPC      O12            18.8505085217      -14.4643315839      -18.5601068399  MEMB      94              0.0000000000
     12458       100  POPC      O11            19.0284324143      -12.0201698726      -18.0434021859  MEMB      94              0.0000000000
     12459       100  POPC      C1             20.2895637446      -11.5258076100      -17.5710289648  MEMB      94              0.0000000000
     12460       100  POPC      HA             20.1847300701      -10.4311294167      -17.4048696922  MEMB      94              0.0000000000
     12461       100  POPC      HB             21.1355613484      -11.6311316158      -18.2864912937  MEMB      94              0.0000000000
     12462       100  POPC      C2             20.6562937458      -12.1368847985      -16.2015873414  MEMB      94              0.0000000000
     12463       100  POPC      HS             21.5911192205      -11.6483720170      -15.8389719775  MEMB      94              0.0000000000
     12464       100  POPC      O21            20.8180428947      -13.5726976719      -16.2356897375  MEMB      94              0.0000000000
     12465       100  POPC      C21            21.8257421026      -13.9996618044      -16.9777638273  MEMB      94              0.0000000000
     12466       100  POPC      O22            22.7037348965      -13.2867826228      -17.4505070623  MEMB      94              0.0000000000
     12467       100  POPC      C22            21.7995462765      -15.5331034422      -17.1072268656  MEMB      94              0.0000000000
     12468       100  POPC      H2R            22.8118287982      -15.9067797768      -16.8625310780  MEMB      94              0.0000000000
     12469       100  POPC      H2S            21.5989606220      -15.7748472733      -18.1704946140  MEMB      94              0.0000000000
     12470       100  POPC      C3             19.5194989094      -11.7549922264      -15.2318677724  MEMB      94              0.0000000000
     12471       100  POPC      HX             18.6068813184      -12.3488060568      -15.4758347518  MEMB      94              0.0000000000
     12472       100  POPC      HY             19.2540477102      -10.6926298789      -15.4267116935  MEMB      94              0.0000000000
     12473       100  POPC      O31            19.9589214486      -11.8625557097      -13.8715387710  MEMB      94              0.0000000000
     12474       100  POPC      C31            19.6229071241      -12.9948749392      -13.2705356985  MEMB      94              0.0000000000
     12475       100  POPC      O32            18.9473357980      -13.8890201283      -13.7423231196  MEMB      94              0.0000000000
     12476       100  POPC      C32            20.1390665797      -12.9138821903      -11.8187529436  MEMB      94              0.0000000000
     12477       100  POPC      H2X            19.3678663754      -12.3912781166      -11.2250642999  MEMB      94              0.0000000000
     12478       100  POPC      H2Y            21.0528658025      -12.2917984623      -11.8078537983  MEMB      94              0.0000000000
     12479       100  POPC      C23            20.7986997986      -16.2847925451      -16.1944798730  MEMB      94              0.0000000000
     12480       100  POPC      H3R            19.8104920270      -16.3013502174      -16.6957301665  MEMB      94              0.0000000000
     12481       100  POPC      H3S            20.6756896432      -15.7616990710      -15.2171215785  MEMB      94              0.0000000000
     12482       100  POPC      C24            21.2637578200      -17.7189091884      -15.8940560085  MEMB      94              0.0000000000
     12483       100  POPC      H4R            22.0725611240      -17.6824052956      -15.1289968372  MEMB      94              0.0000000000
     12484       100  POPC      H4S            21.7267904936      -18.1549692566      -16.8075654188  MEMB      94              0.0000000000
     12485       100  POPC      C25            20.1510250786      -18.6706057607      -15.4148906523  MEMB      94              0.0000000000
     12486       100  POPC      H5R            20.6329900132      -19.6300979756      -15.1138166180  MEMB      94              0.0000000000
     12487       100  POPC      H5S            19.4712390137      -18.8736018096      -16.2676575992  MEMB      94              0.0000000000
     12488       100  POPC      C26            19.3019056102      -18.1462116947      -14.2440654868  MEMB      94              0.0000000000
     12489       100  POPC      H6R            18.4796642180      -18.8693684199      -14.0534197394  MEMB      94              0.0000000000
     12490       100  POPC      H6S            18.8354893731      -17.1743780600      -14.5189827096  MEMB      94              0.0000000000
     12491       100  POPC      C27            20.1093402542      -17.9686348463      -12.9521618089  MEMB      94              0.0000000000
     12492       100  POPC      H7R            20.9267814746      -17.2347576466      -13.1360886272  MEMB      94              0.0000000000
     12493       100  POPC      H7S            20.5972641602      -18.9358652897      -12.6970731419  MEMB      94              0.0000000000
     12494       100  POPC      C28            19.2484454878      -17.4733449290      -11.7774145178  MEMB      94              0.0000000000
     12495       100  POPC      H8R            18.7763912082      -16.5118806463      -12.0832268530  MEMB      94              0.0000000000
     12496       100  POPC      H8S            19.9285590429      -17.2394180679      -10.9320975519  MEMB      94              0.0000000000
     12497       100  POPC      C29            18.1854693486      -18.4542527223      -11.3472996164  MEMB      94              0.0000000000
     12498       100  POPC      H91            17.1844634169      -18.2647364434      -11.7645658732  MEMB      94              0.0000000000
     12499       100  POPC      C210           18.3553593787      -19.5303423630      -10.5575149833  MEMB      94              0.0000000000
     12500       100  POPC      H101           17.4770417870      -20.1503366115      -10.3214427379  MEMB      94              0.0000000000
     12501       100  POPC      C211           19.6408904966      -20.0028849630       -9.9244307997  MEMB      94              0.0000000000
     12502       100  POPC      H11R           20.4353920032      -20.0974843537      -10.6992970911  MEMB      94              0.0000000000
     12503       100  POPC      H11S           19.4827731860      -21.0246089185       -9.5122970637  MEMB      94              0.0000000000
     12504       100  POPC      C212           20.1923666848      -19.1221400851       -8.7846798494  MEMB      94              0.0000000000
     12505       100  POPC      H12R           20.6546880228      -18.2079283176       -9.2157268845  MEMB      94              0.0000000000
     12506       100  POPC      H12S           21.0054403997      -19.6822857436       -8.2689445911  MEMB      94              0.0000000000
     12507       100  POPC      C213           19.1375470576      -18.7046084119       -7.7498608928  MEMB      94              0.0000000000
     12508       100  POPC      H13R           18.6420927100      -19.6182608503       -7.3493631204  MEMB      94              0.0000000000
     12509       100  POPC      H13S           18.3598852956      -18.0765105383       -8.2419251607  MEMB      94              0.0000000000
     12510       100  POPC      C214           19.7405739523      -17.9035212409       -6.5898688031  MEMB      94              0.0000000000
     12511       100  POPC      H14R           20.2621154382      -17.0044769483       -6.9888036984  MEMB      94              0.0000000000
     12512       100  POPC      H14S           20.4968348211      -18.5375060078       -6.0742953833  MEMB      94              0.0000000000
     12513       100  POPC      C215           18.6737780150      -17.4608594032       -5.5810118177  MEMB      94              0.0000000000
     12514       100  POPC      H15R           18.0665701213      -18.3524034992       -5.3015452630  MEMB      94              0.0000000000
     12515       100  POPC      H15S           17.9888056801      -16.7237819850       -6.0570834425  MEMB      94              0.0000000000
     12516       100  POPC      C216           19.2695287054      -16.8619214762       -4.3020757833  MEMB      94              0.0000000000
     12517       100  POPC      H16R           19.7930477779      -15.9088656805       -4.5418398755  MEMB      94              0.0000000000
     12518       100  POPC      H16S           20.0230640157      -17.5731028309       -3.8921137739  MEMB      94              0.0000000000
     12519       100  POPC      C217           18.1954598842      -16.6134933869       -3.2358698006  MEMB      94              0.0000000000
     12520       100  POPC      H17R           17.5964158071      -17.5458088839       -3.1113487401  MEMB      94              0.0000000000
     12521       100  POPC      H17S           17.5031016658      -15.8191324746       -3.5951498711  MEMB      94              0.0000000000
     12522       100  POPC      C218           18.7711477465      -16.2176566899       -1.8772036917  MEMB      94              0.0000000000
     12523       100  POPC      H18R           19.3634672859      -15.2807452551       -1.9543070511  MEMB      94              0.0000000000
     12524       100  POPC      H18S           19.4344629666      -17.0172461608       -1.4950449800  MEMB      94              0.0000000000
     12525       100  POPC      H18T           17.9571929829      -16.0630492728       -1.1359681833  MEMB      94              0.0000000000
     12526       100  POPC      C33            20.4143995986      -14.2827200355      -11.1512181111  MEMB      94              0.0000000000
     12527       100  POPC      H3X            20.9040276270      -14.9610394612      -11.8899127766  MEMB      94              0.0000000000
     12528       100  POPC      H3Y            19.4406731768      -14.7449038806      -10.8730042882  MEMB      94              0.0000000000
     12529       100  POPC      C34            21.3275606939      -14.2299650768       -9.9075121624  MEMB      94              0.0000000000
     12530       100  POPC      H4X            22.3582503135      -13.9676870844      -10.2308516651  MEMB      94              0.0000000000
     12531       100  POPC      H4Y            21.3719338187      -15.2561226413       -9.4729522264  MEMB      94              0.0000000000
     12532       100  POPC      C35            20.9115549649      -13.2467196621       -8.7988178760  MEMB      94              0.0000000000
     12533       100  POPC      H5X            20.9734832039      -12.2000135253       -9.1713001938  MEMB      94              0.0000000000
     12534       100  POPC      H5Y            21.6390448170      -13.3412899677       -7.9587601225  MEMB      94              0.0000000000
     12535       100  POPC      C36            19.5036446414      -13.4999305084       -8.2420199624  MEMB      94              0.0000000000
     12536       100  POPC      H6X            19.3355339230      -14.5976490761       -8.1461185012  MEMB      94              0.0000000000
     12537       100  POPC      H6Y            18.7517067820      -13.1094629454       -8.9630117519  MEMB      94              0.0000000000
     12538       100  POPC      C37            19.2780011881      -12.8628434639       -6.8610047855  MEMB      94              0.0000000000
     12539       100  POPC      H7X            19.6487788518      -11.8143886341       -6.8629520711  MEMB      94              0.0000000000
     12540       100  POPC      H7Y            19.8701281078      -13.4317091710       -6.1090432733  MEMB      94              0.0000000000
     12541       100  POPC      C38            17.7973291839      -12.8751145407       -6.4562171167  MEMB      94              0.0000000000
     12542       100  POPC      H8X            17.3576524812      -13.8541535315       -6.7553924072  MEMB      94              0.0000000000
     12543       100  POPC      H8Y            17.2633026870      -12.0836443480       -7.0262555284  MEMB      94              0.0000000000
     12544       100  POPC      C39            17.5394502381      -12.6928313228       -4.9525144555  MEMB      94              0.0000000000
     12545       100  POPC      H9X            17.8602444947      -13.6134774539       -4.4161762059  MEMB      94              0.0000000000
     12546       100  POPC      H9Y            16.4378751010      -12.6021891956       -4.8084889207  MEMB      94              0.0000000000
     12547       100  POPC      C310           18.2129039297      -11.4717993337       -4.2997640976  MEMB      94              0.0000000000
     12548       100  POPC      H10X           17.4544354165      -11.0043674936       -3.6297552543  MEMB      94              0.0000000000
     12549       100  POPC      H10Y           18.4942430040      -10.7126372016       -5.0579203274  MEMB      94              0.0000000000
     12550       100  POPC      C311           19.4276826509      -11.8377085547       -3.4305083517  MEMB      94              0.0000000000
     12551       100  POPC      H11X           20.2874354146      -12.1248308878       -4.0732232431  MEMB      94              0.0000000000
     12552       100  POPC      H11Y           19.1561623849      -12.7339853242       -2.8323253825  MEMB      94              0.0000000000
     12553       100  POPC      C312           19.8433409617      -10.7129223406       -2.4670950705  MEMB      94              0.0000000000
     12554       100  POPC      H12X           19.1080724135       -9.8792455395       -2.5447456552  MEMB      94              0.0000000000
     12555       100  POPC      H12Y           20.8300277095      -10.3037493901       -2.7788323649  MEMB      94              0.0000000000
     12556       100  POPC      C313           19.9079919708      -11.1406393072       -0.9884975973  MEMB      94              0.0000000000
     12557       100  POPC      H13X           18.8902432229      -11.4416968154       -0.6594273510  MEMB      94              0.0000000000
     12558       100  POPC      H13Y           20.2023373046      -10.2504285829       -0.3885896800  MEMB      94              0.0000000000
     12559       100  POPC      C314           20.8775317010      -12.2975260711       -0.6997199681  MEMB      94              0.0000000000
     12560       100  POPC      H14X           21.8780749027      -12.0425111797       -1.1061489929  MEMB      94              0.0000000000
     12561       100  POPC      H14Y           20.5341643653      -13.2097557028       -1.2355637469  MEMB      94              0.0000000000
     12562       100  POPC      C315           21.0048424372      -12.6403091833        0.7957092339  MEMB      94              0.0000000000
     12563       100  POPC      H15X           21.6058638564      -13.5742281538        0.8893701381  MEMB      94              0.0000000000
     12564       100  POPC      H15Y           19.9925356093      -12.8659691434        1.2000472693  MEMB      94              0.0000000000
     12565       100  POPC      C316           21.6608091085      -11.5504292556        1.6516150683  MEMB      94              0.0000000000
     12566       100  POPC      H16X           21.8342855738      -11.9212933294        2.6839993521  MEMB      94              0.0000000000
     12567       100  POPC      H16Y           21.0141800524      -10.6492931942        1.7090276432  MEMB      94              0.0000000000
     12568       100  POPC      H16Z           22.6420722164      -11.2530858498        1.2241779083  MEMB      94              0.0000000000
     12569       101  POPC      N             -20.2117503361      -18.2021619010      -18.9366978824  MEMB      95              0.0000000000
     12570       101  POPC      C12           -18.8494924656      -18.6766004849      -18.4452120852  MEMB      95              0.0000000000
     12571       101  POPC      H12A          -18.9391084455      -19.6643635464      -18.0283721105  MEMB      95              0.0000000000
     12572       101  POPC      H12B          -18.5187116209      -18.0062218506      -17.6556611707  MEMB      95              0.0000000000
     12573       101  POPC      C13           -20.2171819877      -16.7003394246      -18.9962920369  MEMB      95              0.0000000000
     12574       101  POPC      H13A          -19.3443827893      -16.3412101106      -19.5535691993  MEMB      95              0.0000000000
     12575       101  POPC      H13B          -21.0646974063      -16.2702873116      -19.5111486882  MEMB      95              0.0000000000
     12576       101  POPC      H13C          -20.1100359232      -16.1901670573      -18.0442750534  MEMB      95              0.0000000000
     12577       101  POPC      C14           -20.4191883354      -18.7117973472      -20.3261869111  MEMB      95              0.0000000000
     12578       101  POPC      H14A          -21.3703275506      -18.3810123570      -20.7127841341  MEMB      95              0.0000000000
     12579       101  POPC      H14B          -19.6482399247      -18.2868306576      -20.9689705742  MEMB      95              0.0000000000
     12580       101  POPC      H14C          -20.3850635330      -19.7885365810      -20.3806663765  MEMB      95              0.0000000000
     12581       101  POPC      C15           -21.3595904387      -18.6854261184      -18.1075776005  MEMB      95              0.0000000000
     12582       101  POPC      H15A          -21.3573195537      -19.7592076802      -17.9929495499  MEMB      95              0.0000000000
     12583       101  POPC      H15B          -22.2928881558      -18.4482905471      -18.6131397531  MEMB      95              0.0000000000
     12584       101  POPC      H15C          -21.3821047714      -18.2291720179      -17.1278860539  MEMB      95              0.0000000000
     12585       101  POPC      C11           -17.6773093833      -18.7045511137      -19.4661822310  MEMB      95              0.0000000000
     12586       101  POPC      H11A          -17.9119958794      -19.3475795605      -20.3405076480  MEMB      95              0.0000000000
     12587       101  POPC      H11B          -16.7674420566      -19.1586853175      -19.0111390341  MEMB      95              0.0000000000
     12588       101  POPC      P             -16.6323731470      -16.3307639855      -19.0237464514  MEMB      95              0.0000000000
     12589       101  POPC      O13           -17.5596036922      -15.2595645773      -18.6332971297  MEMB      95              0.0000000000
     12590       101  POPC      O14           -15.3195823510      -15.9951780417      -19.6225264483  MEMB      95              0.0000000000
     12591       101  POPC      O12           -17.3917499427      -17.3984426376      -19.9311807139  MEMB      95              0.0000000000
     12592       101  POPC      O11           -16.3417375282      -17.2128431690      -17.7385179265  MEMB      95              0.0000000000
     12593       101  POPC      C1            -15.0552072117      -17.1080417590      -17.1284252571  MEMB      95              0.0000000000
     12594       101  POPC      HA            -14.6471332610      -16.0638439556      -17.1445492735  MEMB      95              0.0000000000
     12595       101  POPC      HB            -14.3358998160      -17.7509887817      -17.6845112388  MEMB      95              0.0000000000
     12596       101  POPC      C2            -15.1351694847      -17.5415006270      -15.6427603067  MEMB      95              0.0000000000
     12597       101  POPC      HS            -14.1068617376      -17.6797030678      -15.2563364590  MEMB      95              0.0000000000
     12598       101  POPC      O21           -15.8799451788      -18.7502106477      -15.4545497624  MEMB      95              0.0000000000
     12599       101  POPC      C21           -15.6542551340      -19.7741247476      -16.2285368218  MEMB      95              0.0000000000
     12600       101  POPC      O22           -14.6248639133      -20.0396349153      -16.8236910607  MEMB      95              0.0000000000
     12601       101  POPC      C22           -16.8954616901      -20.6762140906      -16.2538509648  MEMB      95              0.0000000000
     12602       101  POPC      H2R           -16.6043011866      -21.6728870028      -15.8666460939  MEMB      95              0.0000000000
     12603       101  POPC      H2S           -17.1848561881      -20.7881697429      -17.3166305179  MEMB      95              0.0000000000
     12604       101  POPC      C3            -15.8279234485      -16.4500824062      -14.7759036120  MEMB      95              0.0000000000
     12605       101  POPC      HX            -16.7302107814      -16.1295125858      -15.3454462914  MEMB      95              0.0000000000
     12606       101  POPC      HY            -15.1727449704      -15.5576313269      -14.6648146606  MEMB      95              0.0000000000
     12607       101  POPC      O31           -16.2600091120      -16.9765228167      -13.4995547284  MEMB      95              0.0000000000
     12608       101  POPC      C31           -15.2532660321      -17.2876452750      -12.6841413861  MEMB      95              0.0000000000
     12609       101  POPC      O32           -14.1047940733      -16.9088841916      -12.8175843749  MEMB      95              0.0000000000
     12610       101  POPC      C32           -15.7526191563      -18.1801331746      -11.5415136848  MEMB      95              0.0000000000
     12611       101  POPC      H2X           -16.6383383361      -18.7470955230      -11.8963801089  MEMB      95              0.0000000000
     12612       101  POPC      H2Y           -16.0582226215      -17.5161889908      -10.7074041222  MEMB      95              0.0000000000
     12613       101  POPC      C23           -18.0657199793      -20.0973041526      -15.4200409807  MEMB      95              0.0000000000
     12614       101  POPC      H3R           -18.2845295241      -19.0510728538      -15.7324359880  MEMB      95              0.0000000000
     12615       101  POPC      H3S           -17.7314793248      -20.0400800141      -14.3585818835  MEMB      95              0.0000000000
     12616       101  POPC      C24           -19.3623443487      -20.9134802459      -15.4947811012  MEMB      95              0.0000000000
     12617       101  POPC      H4R           -19.2166910012      -21.7706053593      -16.1879648015  MEMB      95              0.0000000000
     12618       101  POPC      H4S           -20.1817405323      -20.2819639104      -15.9009968389  MEMB      95              0.0000000000
     12619       101  POPC      C25           -19.7930802996      -21.4591694010      -14.1267644784  MEMB      95              0.0000000000
     12620       101  POPC      H5R           -18.9235461166      -21.9915186544      -13.6850905283  MEMB      95              0.0000000000
     12621       101  POPC      H5S           -20.6325788905      -22.1818414317      -14.2487787646  MEMB      95              0.0000000000
     12622       101  POPC      C26           -20.1784378275      -20.4028715955      -13.0877676835  MEMB      95              0.0000000000
     12623       101  POPC      H6R           -20.9555415325      -19.7182462573      -13.4883204685  MEMB      95              0.0000000000
     12624       101  POPC      H6S           -19.2788949430      -19.7945157861      -12.8438026890  MEMB      95              0.0000000000
     12625       101  POPC      C27           -20.6805381301      -21.0632642987      -11.7915723774  MEMB      95              0.0000000000
     12626       101  POPC      H7R           -20.1433553569      -22.0288773335      -11.6508769004  MEMB      95              0.0000000000
     12627       101  POPC      H7S           -21.7554582068      -21.3158953025      -11.9133397463  MEMB      95              0.0000000000
     12628       101  POPC      C28           -20.4453435868      -20.2102573824      -10.5329126201  MEMB      95              0.0000000000
     12629       101  POPC      H8R           -19.3506882333      -20.2024607897      -10.3325493602  MEMB      95              0.0000000000
     12630       101  POPC      H8S           -20.9308393639      -20.7110004025       -9.6678031590  MEMB      95              0.0000000000
     12631       101  POPC      C29           -20.9926431482      -18.8227047389      -10.7280215176  MEMB      95              0.0000000000
     12632       101  POPC      H91           -22.0464219880      -18.7919131361      -11.0374175987  MEMB      95              0.0000000000
     12633       101  POPC      C210          -20.3551697198      -17.6539274846      -10.5341233945  MEMB      95              0.0000000000
     12634       101  POPC      H101          -20.9042218085      -16.7284213229      -10.7666097072  MEMB      95              0.0000000000
     12635       101  POPC      C211          -18.9416183313      -17.4157678132      -10.0672443644  MEMB      95              0.0000000000
     12636       101  POPC      H11R          -18.3813582226      -16.8728614688      -10.8622750642  MEMB      95              0.0000000000
     12637       101  POPC      H11S          -18.3885496851      -18.3582161139       -9.8574486317  MEMB      95              0.0000000000
     12638       101  POPC      C212          -18.9423610579      -16.5436759079       -8.7918714391  MEMB      95              0.0000000000
     12639       101  POPC      H12R          -19.5240375633      -15.6114950551       -8.9746298010  MEMB      95              0.0000000000
     12640       101  POPC      H12S          -17.8935184543      -16.2429690551       -8.5682989084  MEMB      95              0.0000000000
     12641       101  POPC      C213          -19.5195116635      -17.2560099604       -7.5542801714  MEMB      95              0.0000000000
     12642       101  POPC      H13R          -18.8697266275      -18.1231328371       -7.3106180763  MEMB      95              0.0000000000
     12643       101  POPC      H13S          -20.5300998387      -17.6598080992       -7.7826178415  MEMB      95              0.0000000000
     12644       101  POPC      C214          -19.6328661960      -16.3417290302       -6.3240288915  MEMB      95              0.0000000000
     12645       101  POPC      H14R          -20.3847053038      -15.5462213436       -6.5290126622  MEMB      95              0.0000000000
     12646       101  POPC      H14S          -18.6522774326      -15.8477358652       -6.1434397926  MEMB      95              0.0000000000
     12647       101  POPC      C215          -20.0409376310      -17.1078863970       -5.0558697710  MEMB      95              0.0000000000
     12648       101  POPC      H15R          -19.2777150444      -17.8922640657       -4.8556942044  MEMB      95              0.0000000000
     12649       101  POPC      H15S          -21.0100983473      -17.6216707577       -5.2424231853  MEMB      95              0.0000000000
     12650       101  POPC      C216          -20.1846535749      -16.1992507908       -3.8240680717  MEMB      95              0.0000000000
     12651       101  POPC      H16R          -20.9040183381      -15.3853745802       -4.0692386342  MEMB      95              0.0000000000
     12652       101  POPC      H16S          -19.2022561982      -15.7246230828       -3.6026669527  MEMB      95              0.0000000000
     12653       101  POPC      C217          -20.6890876829      -16.9327880093       -2.5691870953  MEMB      95              0.0000000000
     12654       101  POPC      H17R          -21.6899591648      -17.3627723954       -2.7900550588  MEMB      95              0.0000000000
     12655       101  POPC      H17S          -20.8375539204      -16.1867188796       -1.7563371636  MEMB      95              0.0000000000
     12656       101  POPC      C218          -19.7611985723      -18.0403186998       -2.0624952831  MEMB      95              0.0000000000
     12657       101  POPC      H18R          -18.7798949761      -17.6116936384       -1.7716289493  MEMB      95              0.0000000000
     12658       101  POPC      H18S          -19.5879178666      -18.8088237149       -2.8446389920  MEMB      95              0.0000000000
     12659       101  POPC      H18T          -20.1905794493      -18.5493644179       -1.1762430791  MEMB      95              0.0000000000
     12660       101  POPC      C33           -14.6537887202      -19.1616423424      -11.0637666849  MEMB      95              0.0000000000
     12661       101  POPC      H3X           -13.8054554768      -18.5797979632      -10.6415436199  MEMB      95              0.0000000000
     12662       101  POPC      H3Y           -14.2596730296      -19.7226579720      -11.9433316144  MEMB      95              0.0000000000
     12663       101  POPC      C34           -15.1307929429      -20.1905390515      -10.0213426587  MEMB      95              0.0000000000
     12664       101  POPC      H4X           -14.3233798238      -20.9471629398       -9.8824353763  MEMB      95              0.0000000000
     12665       101  POPC      H4Y           -16.0265405189      -20.7224338329      -10.4160229933  MEMB      95              0.0000000000
     12666       101  POPC      C35           -15.4644720136      -19.5904637787       -8.6443501789  MEMB      95              0.0000000000
     12667       101  POPC      H5X           -16.3128304224      -18.8791703382       -8.7582570710  MEMB      95              0.0000000000
     12668       101  POPC      H5Y           -14.5896046774      -19.0161592119       -8.2679323361  MEMB      95              0.0000000000
     12669       101  POPC      C36           -15.8602458378      -20.6661700595       -7.6150736877  MEMB      95              0.0000000000
     12670       101  POPC      H6X           -14.9743107778      -21.2850176387       -7.3508568559  MEMB      95              0.0000000000
     12671       101  POPC      H6Y           -16.6000671007      -21.3378195266       -8.1028286883  MEMB      95              0.0000000000
     12672       101  POPC      C37           -16.5151562105      -20.1055477713       -6.3399781061  MEMB      95              0.0000000000
     12673       101  POPC      H7X           -16.9673958350      -20.9439239745       -5.7630209681  MEMB      95              0.0000000000
     12674       101  POPC      H7Y           -17.3387527891      -19.4215336252       -6.6343289416  MEMB      95              0.0000000000
     12675       101  POPC      C38           -15.5400801409      -19.3574460965       -5.4208025471  MEMB      95              0.0000000000
     12676       101  POPC      H8X           -14.9542916130      -18.6257691763       -6.0209698355  MEMB      95              0.0000000000
     12677       101  POPC      H8Y           -14.8303422953      -20.0964036083       -4.9870604084  MEMB      95              0.0000000000
     12678       101  POPC      C39           -16.2341266562      -18.5957968870       -4.2803953603  MEMB      95              0.0000000000
     12679       101  POPC      H9X           -16.8332386929      -19.3089227701       -3.6714492196  MEMB      95              0.0000000000
     12680       101  POPC      H9Y           -16.9332064399      -17.8511691137       -4.7231676606  MEMB      95              0.0000000000
     12681       101  POPC      C310          -15.2467623411      -17.8636559805       -3.3576707116  MEMB      95              0.0000000000
     12682       101  POPC      H10X          -14.5843590657      -17.2114247381       -3.9694355836  MEMB      95              0.0000000000
     12683       101  POPC      H10Y          -14.6064975404      -18.6145373521       -2.8454535426  MEMB      95              0.0000000000
     12684       101  POPC      C311          -15.9540273166      -16.9946036930       -2.3084159236  MEMB      95              0.0000000000
     12685       101  POPC      H11X          -16.6453882611      -17.6308842747       -1.7173394469  MEMB      95              0.0000000000
     12686       101  POPC      H11Y          -16.5696571231      -16.2359709068       -2.8439959732  MEMB      95              0.0000000000
     12687       101  POPC      C312          -14.9886275892      -16.2624198952       -1.3606071477  MEMB      95              0.0000000000
     12688       101  POPC      H12X          -15.5506981941      -15.4715751546       -0.8145786554  MEMB      95              0.0000000000
     12689       101  POPC      H12Y          -14.2082410106      -15.7582850027       -1.9716608913  MEMB      95              0.0000000000
     12690       101  POPC      C313          -14.3022595412      -17.1689598039       -0.3251260506  MEMB      95              0.0000000000
     12691       101  POPC      H13X          -13.5089725103      -16.5791356680        0.1854905295  MEMB      95              0.0000000000
     12692       101  POPC      H13Y          -13.8104533555      -18.0186379287       -0.8450099934  MEMB      95              0.0000000000
     12693       101  POPC      C314          -15.2668687251      -17.7078957529        0.7386015075  MEMB      95              0.0000000000
     12694       101  POPC      H14X          -16.0395220753      -18.3389256660        0.2465249320  MEMB      95              0.0000000000
     12695       101  POPC      H14Y          -15.7851770639      -16.8427863780        1.2103621040  MEMB      95              0.0000000000
     12696       101  POPC      C315          -14.5957198087      -18.5433164334        1.8414455816  MEMB      95              0.0000000000
     12697       101  POPC      H15X          -15.3555976134      -18.8062903701        2.6062428314  MEMB      95              0.0000000000
     12698       101  POPC      H15Y          -13.8483424460      -17.9136539902        2.3652453276  MEMB      95              0.0000000000
     12699       101  POPC      C316          -13.9527765387      -19.8445318358        1.3518547644  MEMB      95              0.0000000000
     12700       101  POPC      H16X          -14.7105838530      -20.4780264150        0.8427528148  MEMB      95              0.0000000000
     12701       101  POPC      H16Y          -13.5315293485      -20.4177058327        2.2056559741  MEMB      95              0.0000000000
     12702       101  POPC      H16Z          -13.1356533421      -19.6349908178        0.6308521732  MEMB      95              0.0000000000
     12703       102  POPC      N               2.6213051234       24.5114368966      -18.0526981147  MEMB      96              0.0000000000
     12704       102  POPC      C12             1.5412262473       23.4525110039      -18.2230767362  MEMB      96              0.0000000000
     12705       102  POPC      H12A            0.6192877358       23.8623209696      -17.8029687561  MEMB      96              0.0000000000
     12706       102  POPC      H12B            1.7876489555       22.5964541060      -17.6187235021  MEMB      96              0.0000000000
     12707       102  POPC      C13             2.0648667690       25.7786809875      -18.6173230072  MEMB      96              0.0000000000
     12708       102  POPC      H13A            1.1579628038       26.0623781432      -18.0914490556  MEMB      96              0.0000000000
     12709       102  POPC      H13B            2.7649124505       26.5898665102      -18.6068133998  MEMB      96              0.0000000000
     12710       102  POPC      H13C            1.7319582326       25.6069983338      -19.6460284659  MEMB      96              0.0000000000
     12711       102  POPC      C14             2.9214175169       24.7020727952      -16.5987007492  MEMB      96              0.0000000000
     12712       102  POPC      H14A            3.4714093725       23.8547111772      -16.2169880224  MEMB      96              0.0000000000
     12713       102  POPC      H14B            3.5635827532       25.5666065790      -16.4379865430  MEMB      96              0.0000000000
     12714       102  POPC      H14C            2.0214856826       24.8454528340      -16.0122202854  MEMB      96              0.0000000000
     12715       102  POPC      C15             3.8877211138       24.1450070058      -18.7847268326  MEMB      96              0.0000000000
     12716       102  POPC      H15A            4.3211527615       23.2135997013      -18.4471184088  MEMB      96              0.0000000000
     12717       102  POPC      H15B            4.6532425792       24.9147299821      -18.7208162615  MEMB      96              0.0000000000
     12718       102  POPC      H15C            3.6563074670       24.0199678698      -19.8409551004  MEMB      96              0.0000000000
     12719       102  POPC      C11             1.1737367103       22.9315572401      -19.6438108858  MEMB      96              0.0000000000
     12720       102  POPC      H11A            0.3450551302       22.1854489568      -19.5436202015  MEMB      96              0.0000000000
     12721       102  POPC      H11B            2.0461232917       22.3722654320      -20.0426509965  MEMB      96              0.0000000000
     12722       102  POPC      P              -0.5740802878       24.6558763431      -20.5952996530  MEMB      96              0.0000000000
     12723       102  POPC      O13            -1.6365298136       23.6922526227      -20.9866062446  MEMB      96              0.0000000000
     12724       102  POPC      O14            -0.4489442004       25.8901906035      -21.4186301301  MEMB      96              0.0000000000
     12725       102  POPC      O12             0.8420472993       23.9612254628      -20.5745026770  MEMB      96              0.0000000000
     12726       102  POPC      O11            -0.7544210877       24.9994991061      -19.0436878378  MEMB      96              0.0000000000
     12727       102  POPC      C1             -2.0722475583       25.0277328598      -18.4925610958  MEMB      96              0.0000000000
     12728       102  POPC      HA             -2.7575955044       24.2930328759      -18.9647786483  MEMB      96              0.0000000000
     12729       102  POPC      HB             -2.5016630175       26.0401505917      -18.6814622193  MEMB      96              0.0000000000
     12730       102  POPC      C2             -2.1365384158       24.7715419306      -16.9504611917  MEMB      96              0.0000000000
     12731       102  POPC      HS             -3.1594397419       25.0723820144      -16.6255865758  MEMB      96              0.0000000000
     12732       102  POPC      O21            -1.1269421025       25.5410555365      -16.2662519661  MEMB      96              0.0000000000
     12733       102  POPC      C21            -1.4302151886       26.8483365703      -16.2108478820  MEMB      96              0.0000000000
     12734       102  POPC      O22            -2.4689135355       27.3388421394      -16.6043111631  MEMB      96              0.0000000000
     12735       102  POPC      C22            -0.3329304429       27.5638725816      -15.4255523706  MEMB      96              0.0000000000
     12736       102  POPC      H2R             0.6449068916       27.3038564865      -15.8789836491  MEMB      96              0.0000000000
     12737       102  POPC      H2S            -0.3598690158       27.1660521267      -14.3900797672  MEMB      96              0.0000000000
     12738       102  POPC      C3             -2.0100434466       23.2576494230      -16.4962308434  MEMB      96              0.0000000000
     12739       102  POPC      HX             -2.8239486213       22.7049297030      -17.0242220294  MEMB      96              0.0000000000
     12740       102  POPC      HY             -2.2604392488       23.2693548233      -15.4095600067  MEMB      96              0.0000000000
     12741       102  POPC      O31            -0.7335502804       22.5789796249      -16.6773393617  MEMB      96              0.0000000000
     12742       102  POPC      C31            -0.8104535899       21.2907315757      -16.2230551329  MEMB      96              0.0000000000
     12743       102  POPC      O32            -1.8214405850       20.7873830080      -15.7754198404  MEMB      96              0.0000000000
     12744       102  POPC      C32             0.5213678191       20.5616076497      -16.3250314037  MEMB      96              0.0000000000
     12745       102  POPC      H2X             0.8714011747       20.6042418124      -17.3754439687  MEMB      96              0.0000000000
     12746       102  POPC      H2Y             0.3226587492       19.4919241788      -16.0914491664  MEMB      96              0.0000000000
     12747       102  POPC      C23            -0.5106524285       29.0992143888      -15.3932376382  MEMB      96              0.0000000000
     12748       102  POPC      H3R            -1.4532552533       29.3994154632      -14.8826348062  MEMB      96              0.0000000000
     12749       102  POPC      H3S            -0.6008357635       29.4565615539      -16.4481687487  MEMB      96              0.0000000000
     12750       102  POPC      C24             0.6837811674       29.8465389846      -14.7689064562  MEMB      96              0.0000000000
     12751       102  POPC      H4R             0.8783190547       30.7472923364      -15.4027779541  MEMB      96              0.0000000000
     12752       102  POPC      H4S             1.6006209562       29.2203733958      -14.8130705782  MEMB      96              0.0000000000
     12753       102  POPC      C25             0.4607216442       30.3659051952      -13.3345979959  MEMB      96              0.0000000000
     12754       102  POPC      H5R            -0.4913295236       30.9388152397      -13.2938076527  MEMB      96              0.0000000000
     12755       102  POPC      H5S             1.2933911370       31.0750198569      -13.1078932472  MEMB      96              0.0000000000
     12756       102  POPC      C26             0.4584991121       29.2987118999      -12.2302579492  MEMB      96              0.0000000000
     12757       102  POPC      H6R             1.3860494468       28.6890373466      -12.3208150571  MEMB      96              0.0000000000
     12758       102  POPC      H6S            -0.4122931344       28.6193806943      -12.3573792924  MEMB      96              0.0000000000
     12759       102  POPC      C27             0.4274101634       29.9427006263      -10.8323380668  MEMB      96              0.0000000000
     12760       102  POPC      H7R            -0.5691121800       30.3989537754      -10.6435443346  MEMB      96              0.0000000000
     12761       102  POPC      H7S             1.1755422287       30.7695561257      -10.8292321614  MEMB      96              0.0000000000
     12762       102  POPC      C28             0.8221435834       28.9879882671       -9.6897076595  MEMB      96              0.0000000000
     12763       102  POPC      H8R             1.0251243779       29.6119974607       -8.7895251856  MEMB      96              0.0000000000
     12764       102  POPC      H8S             1.7796792978       28.5025116023       -9.9705509893  MEMB      96              0.0000000000
     12765       102  POPC      C29            -0.2150348746       27.9398877381       -9.3898370025  MEMB      96              0.0000000000
     12766       102  POPC      H91            -0.7509582416       27.5401201300      -10.2645592820  MEMB      96              0.0000000000
     12767       102  POPC      C210           -0.5095103729       27.4636802864       -8.1676716984  MEMB      96              0.0000000000
     12768       102  POPC      H101           -1.2936271153       26.6953670634       -8.0767893700  MEMB      96              0.0000000000
     12769       102  POPC      C211            0.1333599515       27.8724521521       -6.8637928834  MEMB      96              0.0000000000
     12770       102  POPC      H11R            1.1910407053       28.1898216592       -7.0008163618  MEMB      96              0.0000000000
     12771       102  POPC      H11S            0.1617878299       26.9820263644       -6.1967060566  MEMB      96              0.0000000000
     12772       102  POPC      C212           -0.6238796630       29.0002705451       -6.1336024921  MEMB      96              0.0000000000
     12773       102  POPC      H12R           -1.7181417838       28.8299375794       -6.2393427720  MEMB      96              0.0000000000
     12774       102  POPC      H12S           -0.4111828821       29.9866949624       -6.5998553094  MEMB      96              0.0000000000
     12775       102  POPC      C213           -0.3114422860       29.0500317553       -4.6270422073  MEMB      96              0.0000000000
     12776       102  POPC      H13R            0.6890731575       29.4973919612       -4.4480707407  MEMB      96              0.0000000000
     12777       102  POPC      H13S           -0.2700102111       28.0055221342       -4.2478664413  MEMB      96              0.0000000000
     12778       102  POPC      C214           -1.3909345687       29.8053406133       -3.8342235293  MEMB      96              0.0000000000
     12779       102  POPC      H14R           -2.3655115354       29.6694634115       -4.3553578873  MEMB      96              0.0000000000
     12780       102  POPC      H14S           -1.1681023992       30.8918286207       -3.8422932761  MEMB      96              0.0000000000
     12781       102  POPC      C215           -1.5847142361       29.3415030596       -2.3799160395  MEMB      96              0.0000000000
     12782       102  POPC      H15R           -2.0739690715       28.3479367026       -2.3658501836  MEMB      96              0.0000000000
     12783       102  POPC      H15S           -2.2889541542       30.0540319355       -1.8908849277  MEMB      96              0.0000000000
     12784       102  POPC      C216           -0.2941452998       29.2842033982       -1.5587970870  MEMB      96              0.0000000000
     12785       102  POPC      H16R           -0.4707612202       29.7804713110       -0.5797413212  MEMB      96              0.0000000000
     12786       102  POPC      H16S            0.4957626126       29.8546928722       -2.0860349742  MEMB      96              0.0000000000
     12787       102  POPC      C217            0.2385026767       27.8738229894       -1.2934471553  MEMB      96              0.0000000000
     12788       102  POPC      H17R            0.5256632941       27.4045741451       -2.2606554836  MEMB      96              0.0000000000
     12789       102  POPC      H17S           -0.5632581196       27.2479353503       -0.8435881060  MEMB      96              0.0000000000
     12790       102  POPC      C218            1.4519206475       27.8953945171       -0.3650335499  MEMB      96              0.0000000000
     12791       102  POPC      H18R            1.1603253163       28.2116151953        0.6564334799  MEMB      96              0.0000000000
     12792       102  POPC      H18S            2.2043533383       28.6161013954       -0.7460207493  MEMB      96              0.0000000000
     12793       102  POPC      H18T            1.9209983171       26.8908644860       -0.2964060202  MEMB      96              0.0000000000
     12794       102  POPC      C33             1.6082612117       21.0939307482      -15.3588779836  MEMB      96              0.0000000000
     12795       102  POPC      H3X             1.9150124879       22.1205924324      -15.6459648347  MEMB      96              0.0000000000
     12796       102  POPC      H3Y             2.4968722856       20.4277372147      -15.4748511110  MEMB      96              0.0000000000
     12797       102  POPC      C34             1.1914620284       21.0776900505      -13.8755844642  MEMB      96              0.0000000000
     12798       102  POPC      H4X             2.0201291394       20.6316708769      -13.2778140208  MEMB      96              0.0000000000
     12799       102  POPC      H4Y             0.3054818209       20.4194219672      -13.7343266823  MEMB      96              0.0000000000
     12800       102  POPC      C35             0.9075550783       22.4766688078      -13.3001185340  MEMB      96              0.0000000000
     12801       102  POPC      H5X             0.0562911225       22.9454655567      -13.8435271883  MEMB      96              0.0000000000
     12802       102  POPC      H5Y             1.8079418559       23.1134849467      -13.4586411560  MEMB      96              0.0000000000
     12803       102  POPC      C36             0.5978740651       22.4372974091      -11.7915669926  MEMB      96              0.0000000000
     12804       102  POPC      H6X             1.4082775701       21.8737296665      -11.2758134091  MEMB      96              0.0000000000
     12805       102  POPC      H6Y            -0.3551392416       21.8825299270      -11.6338005443  MEMB      96              0.0000000000
     12806       102  POPC      C37             0.4760593440       23.8356478821      -11.1652313983  MEMB      96              0.0000000000
     12807       102  POPC      H7X            -0.3375110889       24.3936969745      -11.6824311816  MEMB      96              0.0000000000
     12808       102  POPC      H7Y             1.4239614355       24.3949589806      -11.3340715189  MEMB      96              0.0000000000
     12809       102  POPC      C38             0.1743245843       23.8309241286       -9.6552158091  MEMB      96              0.0000000000
     12810       102  POPC      H8X            -0.8184916115       23.3628306765       -9.4767952034  MEMB      96              0.0000000000
     12811       102  POPC      H8Y             0.1172266716       24.8876988562       -9.3097537760  MEMB      96              0.0000000000
     12812       102  POPC      C39             1.2340702106       23.1060742061       -8.8120316352  MEMB      96              0.0000000000
     12813       102  POPC      H9X             2.2421171170       23.4087442763       -9.1738584468  MEMB      96              0.0000000000
     12814       102  POPC      H9Y             1.1401463088       22.0081530011       -8.9665155353  MEMB      96              0.0000000000
     12815       102  POPC      C310            1.1475733481       23.4134175074       -7.3067985255  MEMB      96              0.0000000000
     12816       102  POPC      H10X            1.4462351853       24.4719733133       -7.1330424510  MEMB      96              0.0000000000
     12817       102  POPC      H10Y            1.8818247862       22.7646185754       -6.7763634448  MEMB      96              0.0000000000
     12818       102  POPC      C311           -0.2440490447       23.1831557907       -6.6965608748  MEMB      96              0.0000000000
     12819       102  POPC      H11X           -0.6651386584       22.2409332288       -7.1155470950  MEMB      96              0.0000000000
     12820       102  POPC      H11Y           -0.9164923095       24.0202511066       -6.9904592185  MEMB      96              0.0000000000
     12821       102  POPC      C312           -0.2215028295       23.0558785373       -5.1629817755  MEMB      96              0.0000000000
     12822       102  POPC      H12X            0.3426052451       22.1346050390       -4.9013190930  MEMB      96              0.0000000000
     12823       102  POPC      H12Y           -1.2614628844       22.9221738357       -4.7900682508  MEMB      96              0.0000000000
     12824       102  POPC      C313            0.4170784033       24.2512488435       -4.4394938947  MEMB      96              0.0000000000
     12825       102  POPC      H13X           -0.1743992566       25.1634091894       -4.6850079964  MEMB      96              0.0000000000
     12826       102  POPC      H13Y            1.4545553255       24.4163124841       -4.8031112644  MEMB      96              0.0000000000
     12827       102  POPC      C314            0.4533831491       24.0837809253       -2.9119262822  MEMB      96              0.0000000000
     12828       102  POPC      H14X           -0.5574301308       23.7875962417       -2.5547637213  MEMB      96              0.0000000000
     12829       102  POPC      H14Y            0.7019115010       25.0672879583       -2.4510651867  MEMB      96              0.0000000000
     12830       102  POPC      C315            1.4753292926       23.0558681048       -2.4130524218  MEMB      96              0.0000000000
     12831       102  POPC      H15X            2.4896823446       23.3607149689       -2.7564173308  MEMB      96              0.0000000000
     12832       102  POPC      H15Y            1.2542986310       22.0619071063       -2.8625252566  MEMB      96              0.0000000000
     12833       102  POPC      C316            1.4737114126       22.9250541354       -0.8888238144  MEMB      96              0.0000000000
     12834       102  POPC      H16X            2.2399840526       22.1931982450       -0.5531867420  MEMB      96              0.0000000000
     12835       102  POPC      H16Y            0.4810379216       22.5759654701       -0.5313287118  MEMB      96              0.0000000000
     12836       102  POPC      H16Z            1.6884281451       23.9074497466       -0.4157087389  MEMB      96              0.0000000000
     12837       103  POPC      N             -20.4480535655       11.4266815943      -20.7409062815  MEMB      97              0.0000000000
     12838       103  POPC      C12           -21.5501694060       11.3307640789      -19.6969779883  MEMB      97              0.0000000000
     12839       103  POPC      H12A          -21.5949775062       10.3277225021      -19.3024067241  MEMB      97              0.0000000000
     12840       103  POPC      H12B          -22.4934269040       11.5446748546      -20.1905155998  MEMB      97              0.0000000000
     12841       103  POPC      C13           -19.1164747433       11.5417364715      -20.0648535981  MEMB      97              0.0000000000
     12842       103  POPC      H13A          -18.9007391106       10.7173186269      -19.4152442874  MEMB      97              0.0000000000
     12843       103  POPC      H13B          -18.3145150428       11.7205518343      -20.7719795475  MEMB      97              0.0000000000
     12844       103  POPC      H13C          -19.1266208270       12.4510779148      -19.4442357762  MEMB      97              0.0000000000
     12845       103  POPC      C14           -20.4343351168       10.2923239100      -21.7074776453  MEMB      97              0.0000000000
     12846       103  POPC      H14A          -21.3114806106       10.2988065574      -22.3439479955  MEMB      97              0.0000000000
     12847       103  POPC      H14B          -19.5760881885       10.4103780609      -22.3684603350  MEMB      97              0.0000000000
     12848       103  POPC      H14C          -20.3416715774        9.3425055252      -21.2027453138  MEMB      97              0.0000000000
     12849       103  POPC      C15           -20.6521433584       12.7097993126      -21.5049431492  MEMB      97              0.0000000000
     12850       103  POPC      H15A          -20.6238863256       13.5321032865      -20.7791287383  MEMB      97              0.0000000000
     12851       103  POPC      H15B          -21.6116084873       12.7910646554      -21.9801535606  MEMB      97              0.0000000000
     12852       103  POPC      H15C          -19.8423726669       12.9441188836      -22.1868779226  MEMB      97              0.0000000000
     12853       103  POPC      C11           -21.4732751067       12.3375784693      -18.5182500397  MEMB      97              0.0000000000
     12854       103  POPC      H11A          -20.5883513801       12.1193774301      -17.8737454582  MEMB      97              0.0000000000
     12855       103  POPC      H11B          -22.3644065855       12.1940351006      -17.8684600301  MEMB      97              0.0000000000
     12856       103  POPC      P             -20.4417801404       14.7758376534      -18.5713660551  MEMB      97              0.0000000000
     12857       103  POPC      O13           -20.5171992477       15.8926397110      -19.5438523304  MEMB      97              0.0000000000
     12858       103  POPC      O14           -19.1559688610       14.0579475092      -18.4319742640  MEMB      97              0.0000000000
     12859       103  POPC      O12           -21.4817191945       13.6684383344      -19.0275998411  MEMB      97              0.0000000000
     12860       103  POPC      O11           -21.0438444304       15.1705588587      -17.1221773444  MEMB      97              0.0000000000
     12861       103  POPC      C1            -22.4801268460       15.3484829624      -17.0329184317  MEMB      97              0.0000000000
     12862       103  POPC      HA            -23.0505996985       14.7447099563      -17.7768764389  MEMB      97              0.0000000000
     12863       103  POPC      HB            -22.7116805093       16.4012566542      -17.3160777783  MEMB      97              0.0000000000
     12864       103  POPC      C2            -23.2395413797       15.0641979659      -15.6530144981  MEMB      97              0.0000000000
     12865       103  POPC      HS            -24.1684522089       15.6748968608      -15.7734211376  MEMB      97              0.0000000000
     12866       103  POPC      O21           -22.5288889113       15.4030799301      -14.4159661608  MEMB      97              0.0000000000
     12867       103  POPC      C21           -23.3929016779       15.7683166778      -13.4426936487  MEMB      97              0.0000000000
     12868       103  POPC      O22           -24.5988314063       15.8052501781      -13.5584254756  MEMB      97              0.0000000000
     12869       103  POPC      C22           -22.7227096950       16.1898662188      -12.1459426113  MEMB      97              0.0000000000
     12870       103  POPC      H2R           -23.5501201446       16.5137044799      -11.4758327927  MEMB      97              0.0000000000
     12871       103  POPC      H2S           -22.1086242403       17.0763613580      -12.3444935499  MEMB      97              0.0000000000
     12872       103  POPC      C3            -23.6822602184       13.5669513379      -15.5346312763  MEMB      97              0.0000000000
     12873       103  POPC      HX            -24.1302943805       13.2683277710      -16.5052382841  MEMB      97              0.0000000000
     12874       103  POPC      HY            -24.5021689656       13.5299674692      -14.7755577350  MEMB      97              0.0000000000
     12875       103  POPC      O31           -22.5868667289       12.6766970065      -15.2472387040  MEMB      97              0.0000000000
     12876       103  POPC      C31           -22.7282692463       11.8694704189      -14.2048174898  MEMB      97              0.0000000000
     12877       103  POPC      O32           -23.7418841165       11.7002681491      -13.5505313379  MEMB      97              0.0000000000
     12878       103  POPC      C32           -21.3856713652       11.1796091486      -13.9737307371  MEMB      97              0.0000000000
     12879       103  POPC      H2X           -20.5916612207       11.8812694309      -14.3139236665  MEMB      97              0.0000000000
     12880       103  POPC      H2Y           -21.3373493033       10.2749386262      -14.6099244857  MEMB      97              0.0000000000
     12881       103  POPC      C23           -21.8922810468       15.1098840303      -11.4336051614  MEMB      97              0.0000000000
     12882       103  POPC      H3R           -21.2158462420       15.6353030065      -10.7152682818  MEMB      97              0.0000000000
     12883       103  POPC      H3S           -21.2418674028       14.5465139596      -12.1389215502  MEMB      97              0.0000000000
     12884       103  POPC      C24           -22.7831135033       14.1713564260      -10.6187811900  MEMB      97              0.0000000000
     12885       103  POPC      H4R           -23.2765830336       13.4449982323      -11.3026838241  MEMB      97              0.0000000000
     12886       103  POPC      H4S           -23.5784092549       14.7693024451      -10.1196037086  MEMB      97              0.0000000000
     12887       103  POPC      C25           -21.9905398516       13.4355213265       -9.5357770520  MEMB      97              0.0000000000
     12888       103  POPC      H5R           -21.6390817872       14.1670256636       -8.7744267123  MEMB      97              0.0000000000
     12889       103  POPC      H5S           -21.0872137320       13.0080742925      -10.0231737389  MEMB      97              0.0000000000
     12890       103  POPC      C26           -22.7791553038       12.3065278262       -8.8663054550  MEMB      97              0.0000000000
     12891       103  POPC      H6R           -22.0890939283       11.6944076321       -8.2428219675  MEMB      97              0.0000000000
     12892       103  POPC      H6S           -23.1867801105       11.6390265916       -9.6582582184  MEMB      97              0.0000000000
     12893       103  POPC      C27           -23.9272461907       12.7954922691       -7.9727975276  MEMB      97              0.0000000000
     12894       103  POPC      H7R           -24.5578334850       13.5019835833       -8.5566581000  MEMB      97              0.0000000000
     12895       103  POPC      H7S           -23.5102290052       13.3520320781       -7.1022427423  MEMB      97              0.0000000000
     12896       103  POPC      C28           -24.7948789599       11.6221237276       -7.4898125182  MEMB      97              0.0000000000
     12897       103  POPC      H8R           -24.1627945598       10.9441766604       -6.8756741632  MEMB      97              0.0000000000
     12898       103  POPC      H8S           -25.1081692459       11.0341504817       -8.3812743519  MEMB      97              0.0000000000
     12899       103  POPC      C29           -26.0180251652       12.1096553823       -6.7553755944  MEMB      97              0.0000000000
     12900       103  POPC      H91           -26.7989382266       12.5301226729       -7.4082509148  MEMB      97              0.0000000000
     12901       103  POPC      C210          -26.2464746272       12.0539648298       -5.4309904812  MEMB      97              0.0000000000
     12902       103  POPC      H101          -27.1957320704       12.4577031687       -5.0460809348  MEMB      97              0.0000000000
     12903       103  POPC      C211          -25.3281073043       11.4900239806       -4.3749707977  MEMB      97              0.0000000000
     12904       103  POPC      H11R          -24.4398088829       10.9918471812       -4.8234597241  MEMB      97              0.0000000000
     12905       103  POPC      H11S          -25.8583999231       10.7106270070       -3.7834489404  MEMB      97              0.0000000000
     12906       103  POPC      C212          -24.7999408502       12.5734065195       -3.4143518556  MEMB      97              0.0000000000
     12907       103  POPC      H12R          -24.2783019877       13.3606676438       -4.0010011976  MEMB      97              0.0000000000
     12908       103  POPC      H12S          -24.0286261309       12.0978013154       -2.7640956687  MEMB      97              0.0000000000
     12909       103  POPC      C213          -25.8724124869       13.1832533345       -2.4941420382  MEMB      97              0.0000000000
     12910       103  POPC      H13R          -25.5369226104       13.0655821709       -1.4392403608  MEMB      97              0.0000000000
     12911       103  POPC      H13S          -26.8209475614       12.6118524852       -2.6011915236  MEMB      97              0.0000000000
     12912       103  POPC      C214          -26.1521343316       14.6787765832       -2.7262969911  MEMB      97              0.0000000000
     12913       103  POPC      H14R          -26.9534289534       14.9918444127       -2.0187201808  MEMB      97              0.0000000000
     12914       103  POPC      H14S          -26.5317929096       14.8375211774       -3.7598924428  MEMB      97              0.0000000000
     12915       103  POPC      C215          -24.9209993220       15.5693612664       -2.4950050503  MEMB      97              0.0000000000
     12916       103  POPC      H15R          -24.2146539649       15.4112183549       -3.3398909201  MEMB      97              0.0000000000
     12917       103  POPC      H15S          -24.4027287197       15.2416027767       -1.5669094082  MEMB      97              0.0000000000
     12918       103  POPC      C216          -25.2505676952       17.0701398857       -2.4114062495  MEMB      97              0.0000000000
     12919       103  POPC      H16R          -26.2984329098       17.2416213065       -2.7381487498  MEMB      97              0.0000000000
     12920       103  POPC      H16S          -24.6179648845       17.6178923004       -3.1445220263  MEMB      97              0.0000000000
     12921       103  POPC      C217          -25.0131778813       17.6947354774       -1.0254184807  MEMB      97              0.0000000000
     12922       103  POPC      H17R          -24.6685866228       16.9151799936       -0.3092591859  MEMB      97              0.0000000000
     12923       103  POPC      H17S          -25.9798016189       18.0901706307       -0.6384732773  MEMB      97              0.0000000000
     12924       103  POPC      C218          -23.9840955593       18.8271928258       -1.0503871913  MEMB      97              0.0000000000
     12925       103  POPC      H18R          -24.3090294080       19.6236271306       -1.7538544045  MEMB      97              0.0000000000
     12926       103  POPC      H18S          -22.9966496740       18.4507037952       -1.3955024268  MEMB      97              0.0000000000
     12927       103  POPC      H18T          -23.8575313536       19.2760539458       -0.0427616549  MEMB      97              0.0000000000
     12928       103  POPC      C33           -21.1298117600       10.8356258859      -12.4923142909  MEMB      97              0.0000000000
     12929       103  POPC      H3X           -21.2655892201        9.7430075766      -12.3316404932  MEMB      97              0.0000000000
     12930       103  POPC      H3Y           -21.8519515193       11.3618222749      -11.8247932857  MEMB      97              0.0000000000
     12931       103  POPC      C34           -19.7236556869       11.2662767004      -12.0519407919  MEMB      97              0.0000000000
     12932       103  POPC      H4X           -19.6428480879       12.3745946369      -12.1509033712  MEMB      97              0.0000000000
     12933       103  POPC      H4Y           -18.9607652308       10.8108672347      -12.7194907958  MEMB      97              0.0000000000
     12934       103  POPC      C35           -19.4321714485       10.8719796106      -10.6008070569  MEMB      97              0.0000000000
     12935       103  POPC      H5X           -19.1037094831        9.8108839608      -10.5660011696  MEMB      97              0.0000000000
     12936       103  POPC      H5Y           -20.3842542259       10.9298970787      -10.0294179860  MEMB      97              0.0000000000
     12937       103  POPC      C36           -18.4029853819       11.7832506388       -9.9144347293  MEMB      97              0.0000000000
     12938       103  POPC      H6X           -18.8364686462       12.8010270862       -9.7808758532  MEMB      97              0.0000000000
     12939       103  POPC      H6Y           -17.5129276282       11.8902664457      -10.5743918289  MEMB      97              0.0000000000
     12940       103  POPC      C37           -17.9443658349       11.2375058436       -8.5565867117  MEMB      97              0.0000000000
     12941       103  POPC      H7X           -17.1682571369       11.9069701649       -8.1241774584  MEMB      97              0.0000000000
     12942       103  POPC      H7Y           -17.4638590873       10.2467751231       -8.7298903697  MEMB      97              0.0000000000
     12943       103  POPC      C38           -19.0708351283       11.0372564086       -7.5273902700  MEMB      97              0.0000000000
     12944       103  POPC      H8X           -18.6670457226       10.3637983355       -6.7468391190  MEMB      97              0.0000000000
     12945       103  POPC      H8Y           -19.9407488253       10.5068381953       -7.9660703059  MEMB      97              0.0000000000
     12946       103  POPC      C39           -19.5268585660       12.3267097902       -6.8313168855  MEMB      97              0.0000000000
     12947       103  POPC      H9X           -20.1684784398       12.9151324815       -7.5192855263  MEMB      97              0.0000000000
     12948       103  POPC      H9Y           -18.6322945366       12.9503295825       -6.6108608342  MEMB      97              0.0000000000
     12949       103  POPC      C310          -20.2615875625       12.0632840767       -5.5040694058  MEMB      97              0.0000000000
     12950       103  POPC      H10X          -21.1868666104       11.4728621820       -5.6837106022  MEMB      97              0.0000000000
     12951       103  POPC      H10Y          -20.5754783871       13.0409962439       -5.0845676413  MEMB      97              0.0000000000
     12952       103  POPC      C311          -19.3721438065       11.3464816076       -4.4740387587  MEMB      97              0.0000000000
     12953       103  POPC      H11X          -18.3266834749       11.7068938018       -4.6207829502  MEMB      97              0.0000000000
     12954       103  POPC      H11Y          -19.3785173711       10.2517931934       -4.6665474540  MEMB      97              0.0000000000
     12955       103  POPC      C312          -19.7310481804       11.6143134216       -3.0059565099  MEMB      97              0.0000000000
     12956       103  POPC      H12X          -19.7800773325       12.7099173638       -2.8342059449  MEMB      97              0.0000000000
     12957       103  POPC      H12Y          -18.8916982392       11.2162921475       -2.3904014972  MEMB      97              0.0000000000
     12958       103  POPC      C313          -21.0391555005       10.9633968132       -2.5353112017  MEMB      97              0.0000000000
     12959       103  POPC      H13X          -20.9301701977        9.8576555088       -2.6030403985  MEMB      97              0.0000000000
     12960       103  POPC      H13Y          -21.8639324422       11.2638946482       -3.2202185202  MEMB      97              0.0000000000
     12961       103  POPC      C314          -21.4248097856       11.3468964200       -1.0939452955  MEMB      97              0.0000000000
     12962       103  POPC      H14X          -22.3328149563       10.7768125442       -0.7974370484  MEMB      97              0.0000000000
     12963       103  POPC      H14Y          -21.7008530377       12.4244431154       -1.0759440145  MEMB      97              0.0000000000
     12964       103  POPC      C315          -20.3163208739       11.1026833956       -0.0552692505  MEMB      97              0.0000000000
     12965       103  POPC      H15X          -19.3943625230       11.6479244139       -0.3589023644  MEMB      97              0.0000000000
     12966       103  POPC      H15Y          -20.0726642320       10.0167841669       -0.0333121352  MEMB      97              0.0000000000
     12967       103  POPC      C316          -20.6867219793       11.5725638944        1.3522493517  MEMB      97              0.0000000000
     12968       103  POPC      H16X          -19.8591822458       11.3721400437        2.0662236053  MEMB      97              0.0000000000
     12969       103  POPC      H16Y          -21.5985798579       11.0587103141        1.7203361760  MEMB      97              0.0000000000
     12970       103  POPC      H16Z          -20.8836844847       12.6651588122        1.3399326540  MEMB      97              0.0000000000
     12971       104  POPC      N              -3.6396331830      -25.1769321654      -20.0473715852  MEMB      98              0.0000000000
     12972       104  POPC      C12            -3.3875683459      -26.6793527562      -20.1727808099  MEMB      98              0.0000000000
     12973       104  POPC      H12A           -2.3857618830      -26.9444030155      -19.8574101975  MEMB      98              0.0000000000
     12974       104  POPC      H12B           -3.4534629251      -26.9689270332      -21.2208353497  MEMB      98              0.0000000000
     12975       104  POPC      C13            -2.8543399034      -24.3624658413      -21.0231856208  MEMB      98              0.0000000000
     12976       104  POPC      H13A           -1.7926348373      -24.4454001001      -20.8680091291  MEMB      98              0.0000000000
     12977       104  POPC      H13B           -3.0506177176      -24.6429274333      -22.0613684443  MEMB      98              0.0000000000
     12978       104  POPC      H13C           -3.1301610608      -23.3148666372      -20.9292637720  MEMB      98              0.0000000000
     12979       104  POPC      C14            -5.0958326658      -24.9301291352      -20.3124142498  MEMB      98              0.0000000000
     12980       104  POPC      H14A           -5.3425631861      -25.0685827316      -21.3574402717  MEMB      98              0.0000000000
     12981       104  POPC      H14B           -5.6595333498      -25.7231726412      -19.8197999032  MEMB      98              0.0000000000
     12982       104  POPC      H14C           -5.4686346237      -23.9683475431      -20.0013049336  MEMB      98              0.0000000000
     12983       104  POPC      C15            -3.4455791836      -24.7454721047      -18.6219001422  MEMB      98              0.0000000000
     12984       104  POPC      H15A           -4.0209622052      -25.3952851762      -17.9631919288  MEMB      98              0.0000000000
     12985       104  POPC      H15B           -3.8194622042      -23.7360105956      -18.4650081374  MEMB      98              0.0000000000
     12986       104  POPC      H15C           -2.4153877829      -24.7947686975      -18.3277091213  MEMB      98              0.0000000000
     12987       104  POPC      C11            -4.3511026099      -27.6311038063      -19.4039383949  MEMB      98              0.0000000000
     12988       104  POPC      H11A           -4.4484571166      -27.3172316703      -18.3418019332  MEMB      98              0.0000000000
     12989       104  POPC      H11B           -3.8855457740      -28.6487828940      -19.4267039627  MEMB      98              0.0000000000
     12990       104  POPC      P              -6.6511415220      -28.8220752222      -19.8218314953  MEMB      98              0.0000000000
     12991       104  POPC      O13            -5.8784280710      -30.0527320970      -20.0264138234  MEMB      98              0.0000000000
     12992       104  POPC      O14            -7.7858082556      -28.6145640516      -20.7600619427  MEMB      98              0.0000000000
     12993       104  POPC      O12            -5.6352436664      -27.6416210564      -20.0177870196  MEMB      98              0.0000000000
     12994       104  POPC      O11            -7.0959895082      -28.5303267393      -18.3489481532  MEMB      98              0.0000000000
     12995       104  POPC      C1             -7.4567983686      -29.5319553050      -17.4017810747  MEMB      98              0.0000000000
     12996       104  POPC      HA             -7.7234874787      -30.5025936822      -17.8832504921  MEMB      98              0.0000000000
     12997       104  POPC      HB             -8.3656733743      -29.1848523705      -16.8586872244  MEMB      98              0.0000000000
     12998       104  POPC      C2             -6.3474818432      -29.7652919479      -16.3373851648  MEMB      98              0.0000000000
     12999       104  POPC      HS             -6.7559957131      -30.4175798492      -15.5468796457  MEMB      98              0.0000000000
     13000       104  POPC      O21            -5.9555941112      -28.4530601871      -15.8010598718  MEMB      98              0.0000000000
     13001       104  POPC      C21            -6.7280308063      -28.0100699099      -14.7623558137  MEMB      98              0.0000000000
     13002       104  POPC      O22            -7.5822553212      -28.6996084226      -14.2423977559  MEMB      98              0.0000000000
     13003       104  POPC      C22            -6.4626319612      -26.5286510741      -14.2951154772  MEMB      98              0.0000000000
     13004       104  POPC      H2R            -7.4852092644      -26.1681348722      -14.0623471015  MEMB      98              0.0000000000
     13005       104  POPC      H2S            -6.0829598349      -25.9464550410      -15.1545763069  MEMB      98              0.0000000000
     13006       104  POPC      C3             -5.1372845832      -30.5892860158      -17.0302646911  MEMB      98              0.0000000000
     13007       104  POPC      HX             -4.9313119736      -30.0655888198      -17.9709568128  MEMB      98              0.0000000000
     13008       104  POPC      HY             -5.5471874815      -31.5822218025      -17.3198555750  MEMB      98              0.0000000000
     13009       104  POPC      O31            -3.8239164444      -30.7197976768      -16.4156044646  MEMB      98              0.0000000000
     13010       104  POPC      C31            -3.4367200221      -31.8644576672      -15.7920908861  MEMB      98              0.0000000000
     13011       104  POPC      O32            -4.1806704156      -32.7384506150      -15.3959871929  MEMB      98              0.0000000000
     13012       104  POPC      C32            -1.9218985349      -31.8269398079      -15.4418497944  MEMB      98              0.0000000000
     13013       104  POPC      H2X            -1.5106628364      -30.8894860671      -15.8451216837  MEMB      98              0.0000000000
     13014       104  POPC      H2Y            -1.4973048294      -32.6688367790      -16.0308675303  MEMB      98              0.0000000000
     13015       104  POPC      C23            -5.5753472960      -26.2902186438      -13.0019343948  MEMB      98              0.0000000000
     13016       104  POPC      H3R            -4.5023649353      -26.3686853028      -13.2727709803  MEMB      98              0.0000000000
     13017       104  POPC      H3S            -5.7666543724      -27.0978292247      -12.2694410502  MEMB      98              0.0000000000
     13018       104  POPC      C24            -5.6106954853      -24.9067253996      -12.2804816214  MEMB      98              0.0000000000
     13019       104  POPC      H4R            -6.2058743602      -24.1600610181      -12.8309263847  MEMB      98              0.0000000000
     13020       104  POPC      H4S            -4.5676854254      -24.5154966242      -12.2996200942  MEMB      98              0.0000000000
     13021       104  POPC      C25            -6.0379109259      -24.9341116004      -10.7940530209  MEMB      98              0.0000000000
     13022       104  POPC      H5R            -5.6698368398      -25.8617039313      -10.3187141816  MEMB      98              0.0000000000
     13023       104  POPC      H5S            -7.1474078236      -24.9609479697      -10.7346776396  MEMB      98              0.0000000000
     13024       104  POPC      C26            -5.4995787957      -23.7747527689       -9.9137670133  MEMB      98              0.0000000000
     13025       104  POPC      H6R            -6.0006814530      -23.8562756143       -8.9214780826  MEMB      98              0.0000000000
     13026       104  POPC      H6S            -5.7868508449      -22.7996539571      -10.3596486081  MEMB      98              0.0000000000
     13027       104  POPC      C27            -3.9737028288      -23.8233475580       -9.6743525249  MEMB      98              0.0000000000
     13028       104  POPC      H7R            -3.4614780156      -23.5247613433      -10.6164005911  MEMB      98              0.0000000000
     13029       104  POPC      H7S            -3.6862550531      -24.8715253854       -9.4608020775  MEMB      98              0.0000000000
     13030       104  POPC      C28            -3.4237454795      -22.9485057512       -8.5168499558  MEMB      98              0.0000000000
     13031       104  POPC      H8R            -3.8592462750      -21.9284827307       -8.6091200968  MEMB      98              0.0000000000
     13032       104  POPC      H8S            -2.3304635657      -22.8278232971       -8.6848554238  MEMB      98              0.0000000000
     13033       104  POPC      C29            -3.6590960351      -23.4961632991       -7.1254521849  MEMB      98              0.0000000000
     13034       104  POPC      H91            -4.5736297971      -23.1097550760       -6.6497619024  MEMB      98              0.0000000000
     13035       104  POPC      C210           -2.9016634130      -24.3728193899       -6.4218125170  MEMB      98              0.0000000000
     13036       104  POPC      H101           -3.1955282595      -24.6261123446       -5.3953221156  MEMB      98              0.0000000000
     13037       104  POPC      C211           -1.6182362601      -25.0577257001       -6.8031935725  MEMB      98              0.0000000000
     13038       104  POPC      H11R           -0.8424920966      -24.8748942737       -6.0284232889  MEMB      98              0.0000000000
     13039       104  POPC      H11S           -1.2379822785      -24.6585785246       -7.7658010474  MEMB      98              0.0000000000
     13040       104  POPC      C212           -1.7026351688      -26.5813040488       -6.9665194107  MEMB      98              0.0000000000
     13041       104  POPC      H12R           -0.7008434707      -26.9358333595       -7.2713752406  MEMB      98              0.0000000000
     13042       104  POPC      H12S           -2.3704746652      -26.7885040486       -7.8191360806  MEMB      98              0.0000000000
     13043       104  POPC      C213           -2.1890464629      -27.4110242887       -5.7664684205  MEMB      98              0.0000000000
     13044       104  POPC      H13R           -2.1250073574      -28.4835664285       -6.0663786823  MEMB      98              0.0000000000
     13045       104  POPC      H13S           -3.2563020894      -27.1897157069       -5.5802070255  MEMB      98              0.0000000000
     13046       104  POPC      C214           -1.4421548754      -27.2446694315       -4.4365495907  MEMB      98              0.0000000000
     13047       104  POPC      H14R           -1.7994724254      -26.3257129659       -3.9218332110  MEMB      98              0.0000000000
     13048       104  POPC      H14S           -0.3559172010      -27.1206114388       -4.6367809509  MEMB      98              0.0000000000
     13049       104  POPC      C215           -1.6217578786      -28.4762515831       -3.5242004417  MEMB      98              0.0000000000
     13050       104  POPC      H15R           -1.1014842254      -28.3079535624       -2.5562426124  MEMB      98              0.0000000000
     13051       104  POPC      H15S           -1.1177730437      -29.3303798267       -4.0308139083  MEMB      98              0.0000000000
     13052       104  POPC      C216           -3.0854358456      -28.8827345811       -3.2632417171  MEMB      98              0.0000000000
     13053       104  POPC      H16R           -3.6519319034      -28.8838003332       -4.2216179081  MEMB      98              0.0000000000
     13054       104  POPC      H16S           -3.5701512294      -28.1452452208       -2.5888236289  MEMB      98              0.0000000000
     13055       104  POPC      C217           -3.2385332088      -30.2920022813       -2.6738825255  MEMB      98              0.0000000000
     13056       104  POPC      H17R           -2.6630417832      -31.0054397742       -3.3048837976  MEMB      98              0.0000000000
     13057       104  POPC      H17S           -4.3150553844      -30.5788051722       -2.7414494416  MEMB      98              0.0000000000
     13058       104  POPC      C218           -2.7989325193      -30.4295264376       -1.2188871204  MEMB      98              0.0000000000
     13059       104  POPC      H18R           -1.7227691912      -30.1801654756       -1.1003447629  MEMB      98              0.0000000000
     13060       104  POPC      H18S           -2.9630533811      -31.4670748251       -0.8579294823  MEMB      98              0.0000000000
     13061       104  POPC      H18T           -3.3978265604      -29.7465912845       -0.5790490568  MEMB      98              0.0000000000
     13062       104  POPC      C33            -1.4350625916      -32.0234975259      -13.9439028376  MEMB      98              0.0000000000
     13063       104  POPC      H3X            -0.7334466035      -32.8901999094      -14.0534453255  MEMB      98              0.0000000000
     13064       104  POPC      H3Y            -2.2122869207      -32.4445216877      -13.3031981424  MEMB      98              0.0000000000
     13065       104  POPC      C34            -0.5154000927      -30.9311568542      -13.2720344320  MEMB      98              0.0000000000
     13066       104  POPC      H4X             0.0592204094      -30.5331976250      -14.1398007576  MEMB      98              0.0000000000
     13067       104  POPC      H4Y             0.2052243434      -31.4762119028      -12.6221200486  MEMB      98              0.0000000000
     13068       104  POPC      C35            -0.9377030675      -29.6457036756      -12.4526341612  MEMB      98              0.0000000000
     13069       104  POPC      H5X            -1.6634033424      -29.0173973382      -12.9630594108  MEMB      98              0.0000000000
     13070       104  POPC      H5Y            -0.0050689258      -29.0296551919      -12.4244648090  MEMB      98              0.0000000000
     13071       104  POPC      C36            -1.3934635140      -29.7400505454      -10.9738313955  MEMB      98              0.0000000000
     13072       104  POPC      H6X            -0.6066827858      -30.3238924561      -10.4635552604  MEMB      98              0.0000000000
     13073       104  POPC      H6Y            -2.3058633189      -30.3245385100      -10.8703966266  MEMB      98              0.0000000000
     13074       104  POPC      C37            -1.6125549375      -28.4139864032      -10.1642659283  MEMB      98              0.0000000000
     13075       104  POPC      H7X            -0.7526618904      -27.7427051536      -10.3822754567  MEMB      98              0.0000000000
     13076       104  POPC      H7Y            -1.5695372386      -28.6733551875       -9.0818957430  MEMB      98              0.0000000000
     13077       104  POPC      C38            -2.9156937438      -27.5733281028      -10.3153468415  MEMB      98              0.0000000000
     13078       104  POPC      H8X            -3.0497351226      -27.3462848949      -11.3950078967  MEMB      98              0.0000000000
     13079       104  POPC      H8Y            -2.7399794852      -26.5937656070       -9.8331688315  MEMB      98              0.0000000000
     13080       104  POPC      C39            -4.2485637296      -28.1539288060       -9.7487701065  MEMB      98              0.0000000000
     13081       104  POPC      H9X            -4.2898676642      -29.2319126277       -9.9409450836  MEMB      98              0.0000000000
     13082       104  POPC      H9Y            -5.0800074974      -27.7434067923      -10.3532715771  MEMB      98              0.0000000000
     13083       104  POPC      C310           -4.6121631455      -27.9101823204       -8.2738403511  MEMB      98              0.0000000000
     13084       104  POPC      H10X           -4.5150547026      -26.8224272971       -8.0582273220  MEMB      98              0.0000000000
     13085       104  POPC      H10Y           -3.8978501211      -28.4690830317       -7.6315218572  MEMB      98              0.0000000000
     13086       104  POPC      C311           -6.0517979629      -28.3426355714       -7.9174093435  MEMB      98              0.0000000000
     13087       104  POPC      H11X           -6.2377230926      -29.3720558225       -8.2810955008  MEMB      98              0.0000000000
     13088       104  POPC      H11Y           -6.7685047809      -27.6729551071       -8.4433862489  MEMB      98              0.0000000000
     13089       104  POPC      C312           -6.3532906068      -28.3365709197       -6.4097889094  MEMB      98              0.0000000000
     13090       104  POPC      H12X           -5.6789622435      -29.0655351311       -5.9035136780  MEMB      98              0.0000000000
     13091       104  POPC      H12Y           -7.4006351322      -28.6714721686       -6.2489423785  MEMB      98              0.0000000000
     13092       104  POPC      C313           -6.1602783622      -26.9606809448       -5.7662477874  MEMB      98              0.0000000000
     13093       104  POPC      H13X           -6.7995268485      -26.2060124705       -6.2684606231  MEMB      98              0.0000000000
     13094       104  POPC      H13Y           -5.1157655227      -26.6462362491       -5.9521093045  MEMB      98              0.0000000000
     13095       104  POPC      C314           -6.4147627538      -26.9376196731       -4.2499605391  MEMB      98              0.0000000000
     13096       104  POPC      H14X           -6.2200727795      -27.9507736969       -3.8307912133  MEMB      98              0.0000000000
     13097       104  POPC      H14Y           -7.4850296970      -26.6974466393       -4.0714875396  MEMB      98              0.0000000000
     13098       104  POPC      C315           -5.5203583713      -25.9474910333       -3.4907835888  MEMB      98              0.0000000000
     13099       104  POPC      H15X           -4.4911338882      -26.3706062732       -3.4551751919  MEMB      98              0.0000000000
     13100       104  POPC      H15Y           -5.8789420985      -25.8592241797       -2.4396696310  MEMB      98              0.0000000000
     13101       104  POPC      C316           -5.4354706780      -24.5626190068       -4.1264404495  MEMB      98              0.0000000000
     13102       104  POPC      H16X           -4.6523772536      -23.9524587774       -3.6349669184  MEMB      98              0.0000000000
     13103       104  POPC      H16Y           -5.2166012220      -24.6383397066       -5.2052563210  MEMB      98              0.0000000000
     13104       104  POPC      H16Z           -6.3915651879      -24.0295713519       -4.0677063310  MEMB      98              0.0000000000
     13105       105  POPC      N             -25.7527184405      -13.0027424539      -19.2199126408  MEMB      99              0.0000000000
     13106       105  POPC      C12           -25.2622219124      -13.9283210857      -18.1157458468  MEMB      99              0.0000000000
     13107       105  POPC      H12A          -25.6911330775      -14.9149602962      -18.2749734582  MEMB      99              0.0000000000
     13108       105  POPC      H12B          -25.6110140678      -13.5542391715      -17.1679535541  MEMB      99              0.0000000000
     13109       105  POPC      C13           -25.0440327782      -13.3962531512      -20.4657772752  MEMB      99              0.0000000000
     13110       105  POPC      H13A          -25.1732808243      -14.4402388745      -20.7359197598  MEMB      99              0.0000000000
     13111       105  POPC      H13B          -25.3252591100      -12.7984615504      -21.3221269339  MEMB      99              0.0000000000
     13112       105  POPC      H13C          -23.9659958644      -13.2331684326      -20.3367149832  MEMB      99              0.0000000000
     13113       105  POPC      C14           -27.2197415603      -13.1098714237      -19.4185473745  MEMB      99              0.0000000000
     13114       105  POPC      H14A          -27.4818198467      -14.1589030439      -19.5420227017  MEMB      99              0.0000000000
     13115       105  POPC      H14B          -27.7693400736      -12.6978528849      -18.5891441692  MEMB      99              0.0000000000
     13116       105  POPC      H14C          -27.5204067173      -12.5905147197      -20.3302767046  MEMB      99              0.0000000000
     13117       105  POPC      C15           -25.3262534952      -11.5875851653      -18.9410016168  MEMB      99              0.0000000000
     13118       105  POPC      H15A          -25.7249232971      -11.1924850124      -18.0238673379  MEMB      99              0.0000000000
     13119       105  POPC      H15B          -25.5181587094      -10.9311975849      -19.7755983749  MEMB      99              0.0000000000
     13120       105  POPC      H15C          -24.2324673631      -11.5883188411      -18.8365934628  MEMB      99              0.0000000000
     13121       105  POPC      C11           -23.7298304367      -14.1416947483      -17.9855862348  MEMB      99              0.0000000000
     13122       105  POPC      H11A          -23.3790124600      -14.7543457339      -18.8511154267  MEMB      99              0.0000000000
     13123       105  POPC      H11B          -23.5471997674      -14.7714814760      -17.0887051297  MEMB      99              0.0000000000
     13124       105  POPC      P             -21.7862627989      -12.5841647027      -18.7928746505  MEMB      99              0.0000000000
     13125       105  POPC      O13           -22.3465573322      -12.0034772469      -20.0340568471  MEMB      99              0.0000000000
     13126       105  POPC      O14           -21.0506068011      -13.8545118701      -18.9152688728  MEMB      99              0.0000000000
     13127       105  POPC      O12           -23.0229348210      -12.9078605434      -17.8351168542  MEMB      99              0.0000000000
     13128       105  POPC      O11           -20.9347363302      -11.4679899905      -18.0643079066  MEMB      99              0.0000000000
     13129       105  POPC      C1            -21.5156291693      -10.4131316736      -17.3085161418  MEMB      99              0.0000000000
     13130       105  POPC      HA            -22.6023134788      -10.2726523774      -17.5184045242  MEMB      99              0.0000000000
     13131       105  POPC      HB            -21.0169835448       -9.4579248362      -17.5849887914  MEMB      99              0.0000000000
     13132       105  POPC      C2            -21.3201270527      -10.6612395675      -15.7963502600  MEMB      99              0.0000000000
     13133       105  POPC      HS            -20.2268258963      -10.7847906088      -15.6164119144  MEMB      99              0.0000000000
     13134       105  POPC      O21           -22.0819504601      -11.8253502245      -15.4414334159  MEMB      99              0.0000000000
     13135       105  POPC      C21           -21.4820350556      -12.7155400029      -14.6956809108  MEMB      99              0.0000000000
     13136       105  POPC      O22           -20.4269367461      -12.5679844115      -14.1018845899  MEMB      99              0.0000000000
     13137       105  POPC      C22           -22.3093585800      -14.0030540159      -14.7396505495  MEMB      99              0.0000000000
     13138       105  POPC      H2R           -21.8172387530      -14.6554509426      -15.4924407254  MEMB      99              0.0000000000
     13139       105  POPC      H2S           -23.3315589181      -13.7583719201      -15.0969654088  MEMB      99              0.0000000000
     13140       105  POPC      C3            -21.8289106514       -9.4577361954      -14.9811225173  MEMB      99              0.0000000000
     13141       105  POPC      HX            -21.2867212973       -8.5402098301      -15.3010534000  MEMB      99              0.0000000000
     13142       105  POPC      HY            -21.5751342063       -9.6471101256      -13.9102786918  MEMB      99              0.0000000000
     13143       105  POPC      O31           -23.2368685131       -9.2973574686      -15.2483934074  MEMB      99              0.0000000000
     13144       105  POPC      C31           -24.0223827307       -9.2676696733      -14.1917059989  MEMB      99              0.0000000000
     13145       105  POPC      O32           -23.6468012279       -9.1811297202      -13.0387328628  MEMB      99              0.0000000000
     13146       105  POPC      C32           -25.4793265172       -9.3242612391      -14.6835071753  MEMB      99              0.0000000000
     13147       105  POPC      H2X           -25.6005789084      -10.2491424061      -15.2827746569  MEMB      99              0.0000000000
     13148       105  POPC      H2Y           -25.6291071118       -8.4588005346      -15.3574335918  MEMB      99              0.0000000000
     13149       105  POPC      C23           -22.3949967515      -14.7210338949      -13.3799802312  MEMB      99              0.0000000000
     13150       105  POPC      H3R           -21.3750758676      -14.8610938038      -12.9550068408  MEMB      99              0.0000000000
     13151       105  POPC      H3S           -22.8260854531      -15.7322294339      -13.5547759393  MEMB      99              0.0000000000
     13152       105  POPC      C24           -23.2841603471      -13.9630649899      -12.3828993823  MEMB      99              0.0000000000
     13153       105  POPC      H4R           -24.3242990825      -13.9119213718      -12.7740354328  MEMB      99              0.0000000000
     13154       105  POPC      H4S           -22.9085850377      -12.9176722684      -12.2895078217  MEMB      99              0.0000000000
     13155       105  POPC      C25           -23.2997422425      -14.5877404598      -10.9829301450  MEMB      99              0.0000000000
     13156       105  POPC      H5R           -23.7969938884      -13.8952358354      -10.2675426628  MEMB      99              0.0000000000
     13157       105  POPC      H5S           -22.2453870453      -14.7085326226      -10.6454194712  MEMB      99              0.0000000000
     13158       105  POPC      C26           -24.0183627298      -15.9394182761      -10.9396899322  MEMB      99              0.0000000000
     13159       105  POPC      H6R           -23.6657377758      -16.5610711374      -11.7919785231  MEMB      99              0.0000000000
     13160       105  POPC      H6S           -25.1143125577      -15.8095697094      -11.0554981318  MEMB      99              0.0000000000
     13161       105  POPC      C27           -23.6966468301      -16.7204805738       -9.6659650780  MEMB      99              0.0000000000
     13162       105  POPC      H7R           -22.5941235201      -16.6777803988       -9.5260892321  MEMB      99              0.0000000000
     13163       105  POPC      H7S           -23.9697361190      -17.7848944801       -9.8313405844  MEMB      99              0.0000000000
     13164       105  POPC      C28           -24.3747703992      -16.2072765687       -8.3895363842  MEMB      99              0.0000000000
     13165       105  POPC      H8R           -25.4805690293      -16.2922032933       -8.4813101832  MEMB      99              0.0000000000
     13166       105  POPC      H8S           -24.1208116882      -15.1353928616       -8.2359852804  MEMB      99              0.0000000000
     13167       105  POPC      C29           -23.8213830997      -17.0496443031       -7.2737749070  MEMB      99              0.0000000000
     13168       105  POPC      H91           -22.8570644778      -17.5325268630       -7.4983159972  MEMB      99              0.0000000000
     13169       105  POPC      C210          -24.3555351156      -17.2707102666       -6.0715995328  MEMB      99              0.0000000000
     13170       105  POPC      H101          -23.7732619254      -17.8598296018       -5.3568655613  MEMB      99              0.0000000000
     13171       105  POPC      C211          -25.6326571218      -16.7478547266       -5.4915539751  MEMB      99              0.0000000000
     13172       105  POPC      H11R          -26.4073757031      -17.5421374925       -5.4486732139  MEMB      99              0.0000000000
     13173       105  POPC      H11S          -26.0476927725      -15.8890650849       -6.0660100491  MEMB      99              0.0000000000
     13174       105  POPC      C212          -25.2769792476      -16.3094264624       -4.0641810109  MEMB      99              0.0000000000
     13175       105  POPC      H12R          -24.8516276373      -17.1474133834       -3.4666450486  MEMB      99              0.0000000000
     13176       105  POPC      H12S          -26.2134540370      -16.0302317229       -3.5593264645  MEMB      99              0.0000000000
     13177       105  POPC      C213          -24.3110741458      -15.1155689694       -4.0527430935  MEMB      99              0.0000000000
     13178       105  POPC      H13R          -24.6309695664      -14.3811226119       -4.8244167176  MEMB      99              0.0000000000
     13179       105  POPC      H13S          -23.2947259640      -15.4709628219       -4.3380165410  MEMB      99              0.0000000000
     13180       105  POPC      C214          -24.2117694300      -14.4067915364       -2.6994719401  MEMB      99              0.0000000000
     13181       105  POPC      H14R          -23.4199037406      -13.6370118545       -2.7498677429  MEMB      99              0.0000000000
     13182       105  POPC      H14S          -23.8810981896      -15.1523894689       -1.9461174341  MEMB      99              0.0000000000
     13183       105  POPC      C215          -25.5104756747      -13.7338170689       -2.2334927172  MEMB      99              0.0000000000
     13184       105  POPC      H15R          -25.3533349594      -13.3261106004       -1.2147819631  MEMB      99              0.0000000000
     13185       105  POPC      H15S          -26.2921667803      -14.5087739284       -2.1393104195  MEMB      99              0.0000000000
     13186       105  POPC      C216          -26.0637331372      -12.6304147585       -3.1485160831  MEMB      99              0.0000000000
     13187       105  POPC      H16R          -27.0509669514      -12.3229275542       -2.7349107434  MEMB      99              0.0000000000
     13188       105  POPC      H16S          -26.2404728329      -13.0384332892       -4.1682410252  MEMB      99              0.0000000000
     13189       105  POPC      C217          -25.1891348277      -11.3771740629       -3.2407653589  MEMB      99              0.0000000000
     13190       105  POPC      H17R          -25.7672458898      -10.5787915732       -3.7623038864  MEMB      99              0.0000000000
     13191       105  POPC      H17S          -24.3090183817      -11.6159452016       -3.8713615462  MEMB      99              0.0000000000
     13192       105  POPC      C218          -24.7067674243      -10.8617902021       -1.8861718974  MEMB      99              0.0000000000
     13193       105  POPC      H18R          -23.9675635452      -11.5550143173       -1.4334756586  MEMB      99              0.0000000000
     13194       105  POPC      H18S          -25.5632718174      -10.7831958603       -1.1885285643  MEMB      99              0.0000000000
     13195       105  POPC      H18T          -24.2278378735       -9.8675905858       -1.9841657442  MEMB      99              0.0000000000
     13196       105  POPC      C33           -26.5322155752       -9.2887241224      -13.5533809454  MEMB      99              0.0000000000
     13197       105  POPC      H3X           -27.3703729952       -8.6235934197      -13.8671647457  MEMB      99              0.0000000000
     13198       105  POPC      H3Y           -26.1194423419       -8.8450876830      -12.6189237424  MEMB      99              0.0000000000
     13199       105  POPC      C34           -27.1245455284      -10.6723582728      -13.2609497126  MEMB      99              0.0000000000
     13200       105  POPC      H4X           -27.5722323079      -11.0790516392      -14.1937537410  MEMB      99              0.0000000000
     13201       105  POPC      H4Y           -27.9408872732      -10.5603857478      -12.5139081064  MEMB      99              0.0000000000
     13202       105  POPC      C35           -26.1357011151      -11.6963092845      -12.6862207231  MEMB      99              0.0000000000
     13203       105  POPC      H5X           -25.3460665552      -11.9270052416      -13.4347630181  MEMB      99              0.0000000000
     13204       105  POPC      H5Y           -26.6993341162      -12.6350075809      -12.4974957912  MEMB      99              0.0000000000
     13205       105  POPC      C36           -25.4709579955      -11.3057955138      -11.3555996617  MEMB      99              0.0000000000
     13206       105  POPC      H6X           -24.6841157306      -10.5468614752      -11.5220107471  MEMB      99              0.0000000000
     13207       105  POPC      H6Y           -24.9586934590      -12.2117305239      -10.9710249233  MEMB      99              0.0000000000
     13208       105  POPC      C37           -26.4112883847      -10.7573270117      -10.2737471653  MEMB      99              0.0000000000
     13209       105  POPC      H7X           -27.1233324700      -11.5581517184       -9.9902410108  MEMB      99              0.0000000000
     13210       105  POPC      H7Y           -26.9949700669       -9.9028826618      -10.6818205155  MEMB      99              0.0000000000
     13211       105  POPC      C38           -25.6577086514      -10.2536146392       -9.0316412991  MEMB      99              0.0000000000
     13212       105  POPC      H8X           -26.3906231857       -9.8567718995       -8.2950839803  MEMB      99              0.0000000000
     13213       105  POPC      H8Y           -24.9980204865       -9.4093703385       -9.3408748783  MEMB      99              0.0000000000
     13214       105  POPC      C39           -24.7971718612      -11.3338094892       -8.3639854279  MEMB      99              0.0000000000
     13215       105  POPC      H9X           -24.1018463411      -11.7720999206       -9.1140424161  MEMB      99              0.0000000000
     13216       105  POPC      H9Y           -25.4472782137      -12.1563012437       -7.9932840095  MEMB      99              0.0000000000
     13217       105  POPC      C310          -23.9309191962      -10.7921086829       -7.2233446114  MEMB      99              0.0000000000
     13218       105  POPC      H10X          -24.5802751480      -10.3409454339       -6.4400103474  MEMB      99              0.0000000000
     13219       105  POPC      H10Y          -23.2647477689       -9.9928396509       -7.6196106611  MEMB      99              0.0000000000
     13220       105  POPC      C311          -23.0812071313      -11.9085317255       -6.6097485820  MEMB      99              0.0000000000
     13221       105  POPC      H11X          -22.4902114062      -12.4205750788       -7.4015697773  MEMB      99              0.0000000000
     13222       105  POPC      H11Y          -23.7813806545      -12.6632479418       -6.1816084667  MEMB      99              0.0000000000
     13223       105  POPC      C312          -22.1311848449      -11.4234415111       -5.5084790617  MEMB      99              0.0000000000
     13224       105  POPC      H12X          -22.6915610692      -10.7438072620       -4.8297475401  MEMB      99              0.0000000000
     13225       105  POPC      H12Y          -21.3010161930      -10.8250207945       -5.9410466694  MEMB      99              0.0000000000
     13226       105  POPC      C313          -21.5723078737      -12.5985265320       -4.6923451563  MEMB      99              0.0000000000
     13227       105  POPC      H13X          -20.6573454507      -12.9942739231       -5.1842756651  MEMB      99              0.0000000000
     13228       105  POPC      H13Y          -22.3197413584      -13.4200745247       -4.7077205057  MEMB      99              0.0000000000
     13229       105  POPC      C314          -21.2889958900      -12.2609341576       -3.2204098360  MEMB      99              0.0000000000
     13230       105  POPC      H14X          -21.0144661299      -13.1997414055       -2.6861557177  MEMB      99              0.0000000000
     13231       105  POPC      H14Y          -22.2000170360      -11.8474156290       -2.7405070010  MEMB      99              0.0000000000
     13232       105  POPC      C315          -20.1537943021      -11.2573038704       -3.0737681401  MEMB      99              0.0000000000
     13233       105  POPC      H15X          -20.4502359401      -10.2856133801       -3.5236423606  MEMB      99              0.0000000000
     13234       105  POPC      H15Y          -19.3302243339      -11.6716546854       -3.6815350180  MEMB      99              0.0000000000
     13235       105  POPC      C316          -19.6494714636      -11.0521016175       -1.6463809312  MEMB      99              0.0000000000
     13236       105  POPC      H16X          -18.9167139537      -10.2181848886       -1.6103995897  MEMB      99              0.0000000000
     13237       105  POPC      H16Y          -19.1326577553      -11.9678284964       -1.2937349531  MEMB      99              0.0000000000
     13238       105  POPC      H16Z          -20.4874158346      -10.8228632409       -0.9559494006  MEMB      99              0.0000000000
     13239       106  POPC      N              16.9137996930       26.9505357569      -18.6089094377  MEMB      100             0.0000000000
     13240       106  POPC      C12            15.6814214747       26.2026866716      -18.1194507878  MEMB      100             0.0000000000
     13241       106  POPC      H12A           14.8423277554       26.8765962856      -18.0906296073  MEMB      100             0.0000000000
     13242       106  POPC      H12B           15.8652729507       25.8491789676      -17.1089490971  MEMB      100             0.0000000000
     13243       106  POPC      C13            18.0688246933       26.0033565203      -18.7239947388  MEMB      100             0.0000000000
     13244       106  POPC      H13A           18.2298277529       25.5001848289      -17.7802439740  MEMB      100             0.0000000000
     13245       106  POPC      H13B           17.8064986606       25.2153630622      -19.4298785077  MEMB      100             0.0000000000
     13246       106  POPC      H13C           18.9715599008       26.5123761663      -19.0411247051  MEMB      100             0.0000000000
     13247       106  POPC      C14            16.6675464210       27.5385153361      -19.9665417456  MEMB      100             0.0000000000
     13248       106  POPC      H14A           16.3981703829       26.7566600434      -20.6839658970  MEMB      100             0.0000000000
     13249       106  POPC      H14B           15.8790393084       28.2762117791      -19.9209844011  MEMB      100             0.0000000000
     13250       106  POPC      H14C           17.5562066244       28.0592085409      -20.3075182718  MEMB      100             0.0000000000
     13251       106  POPC      C15            17.2710026034       28.0636410835      -17.6882388332  MEMB      100             0.0000000000
     13252       106  POPC      H15A           18.0427303542       28.7069744565      -18.1250472897  MEMB      100             0.0000000000
     13253       106  POPC      H15B           17.5739186911       27.7533708428      -16.7027260198  MEMB      100             0.0000000000
     13254       106  POPC      H15C           16.4477948602       28.7649195245      -17.5550928404  MEMB      100             0.0000000000
     13255       106  POPC      C11            15.2699832513       24.9534128789      -18.9159350550  MEMB      100             0.0000000000
     13256       106  POPC      H11A           15.3348149556       25.1750858724      -20.0093679907  MEMB      100             0.0000000000
     13257       106  POPC      H11B           14.2128499285       24.6809901008      -18.6946477587  MEMB      100             0.0000000000
     13258       106  POPC      P              16.3741406030       22.6583869783      -19.4760767504  MEMB      100             0.0000000000
     13259       106  POPC      O13            17.7155410626       22.0888215751      -19.2126698875  MEMB      100             0.0000000000
     13260       106  POPC      O14            16.0835208836       23.0953643197      -20.8568170421  MEMB      100             0.0000000000
     13261       106  POPC      O12            16.1219609722       23.8907665046      -18.5105364567  MEMB      100             0.0000000000
     13262       106  POPC      O11            15.2299931864       21.6449519574      -19.1020626041  MEMB      100             0.0000000000
     13263       106  POPC      C1             15.3631199737       20.4242418633      -18.4040879387  MEMB      100             0.0000000000
     13264       106  POPC      HA             16.4018130940       20.0303069531      -18.4412838964  MEMB      100             0.0000000000
     13265       106  POPC      HB             14.6949420751       19.6872599885      -18.8965945856  MEMB      100             0.0000000000
     13266       106  POPC      C2             14.9274506859       20.5786662260      -16.9341626169  MEMB      100             0.0000000000
     13267       106  POPC      HS             13.9919972342       21.1959688669      -16.9257605238  MEMB      100             0.0000000000
     13268       106  POPC      O21            16.0315542133       21.1520290920      -16.1953718604  MEMB      100             0.0000000000
     13269       106  POPC      C21            15.8094080606       22.3791620579      -15.7906597468  MEMB      100             0.0000000000
     13270       106  POPC      O22            14.7400332617       22.9616045371      -15.8003421696  MEMB      100             0.0000000000
     13271       106  POPC      C22            17.0726868804       22.9724831991      -15.1752046460  MEMB      100             0.0000000000
     13272       106  POPC      H2R            17.9408363017       22.6769786575      -15.8007826875  MEMB      100             0.0000000000
     13273       106  POPC      H2S            17.1800045092       22.5099318425      -14.1737171919  MEMB      100             0.0000000000
     13274       106  POPC      C3             14.5170749996       19.2474294348      -16.2701214337  MEMB      100             0.0000000000
     13275       106  POPC      HX             15.3323404137       18.5015317618      -16.4120835422  MEMB      100             0.0000000000
     13276       106  POPC      HY             13.6139316801       18.8560389243      -16.7857938803  MEMB      100             0.0000000000
     13277       106  POPC      O31            14.1977811501       19.5320019220      -14.8904631930  MEMB      100             0.0000000000
     13278       106  POPC      C31            15.0973213332       19.1103100892      -14.0239298926  MEMB      100             0.0000000000
     13279       106  POPC      O32            15.8993208946       18.2134371135      -14.1971689090  MEMB      100             0.0000000000
     13280       106  POPC      C32            15.0426676802       19.9386430502      -12.7475439475  MEMB      100             0.0000000000
     13281       106  POPC      H2X            14.4131041706       19.4050135862      -12.0073193399  MEMB      100             0.0000000000
     13282       106  POPC      H2Y            14.5836130512       20.9148392101      -12.9818356427  MEMB      100             0.0000000000
     13283       106  POPC      C23            17.0042231363       24.5180297220      -15.0555213998  MEMB      100             0.0000000000
     13284       106  POPC      H3R            15.9581140897       24.8897003772      -14.9551321013  MEMB      100             0.0000000000
     13285       106  POPC      H3S            17.4290183694       24.9478042289      -15.9900505494  MEMB      100             0.0000000000
     13286       106  POPC      C24            17.7778514082       25.0290551786      -13.8365142710  MEMB      100             0.0000000000
     13287       106  POPC      H4R            18.0002466251       26.1127035586      -13.9412206960  MEMB      100             0.0000000000
     13288       106  POPC      H4S            18.7482751948       24.4823635603      -13.8169095174  MEMB      100             0.0000000000
     13289       106  POPC      C25            17.0304956935       24.7911220865      -12.5111844469  MEMB      100             0.0000000000
     13290       106  POPC      H5R            17.7462137330       24.4458378064      -11.7356161176  MEMB      100             0.0000000000
     13291       106  POPC      H5S            16.3077637223       23.9592893760      -12.6661731703  MEMB      100             0.0000000000
     13292       106  POPC      C26            16.2452188988       26.0145211341      -11.9984352812  MEMB      100             0.0000000000
     13293       106  POPC      H6R            15.2607455774       25.6580026641      -11.6135353279  MEMB      100             0.0000000000
     13294       106  POPC      H6S            16.0168055724       26.6893148519      -12.8521485137  MEMB      100             0.0000000000
     13295       106  POPC      C27            16.9225213832       26.8272053694      -10.8707229413  MEMB      100             0.0000000000
     13296       106  POPC      H7R            16.2266709795       27.6460130998      -10.5771695288  MEMB      100             0.0000000000
     13297       106  POPC      H7S            17.8466460044       27.3027875807      -11.2652701636  MEMB      100             0.0000000000
     13298       106  POPC      C28            17.2923933652       26.0296969902       -9.5986677024  MEMB      100             0.0000000000
     13299       106  POPC      H8R            17.6572163848       26.7468209211       -8.8285118399  MEMB      100             0.0000000000
     13300       106  POPC      H8S            18.1618746267       25.3736260819       -9.8267136044  MEMB      100             0.0000000000
     13301       106  POPC      C29            16.1580477823       25.1821872446       -9.0777740146  MEMB      100             0.0000000000
     13302       106  POPC      H91            15.9412520796       24.2908696758       -9.6879211050  MEMB      100             0.0000000000
     13303       106  POPC      C210           15.4225686384       25.4041775396       -7.9756373630  MEMB      100             0.0000000000
     13304       106  POPC      H101           14.6413283476       24.6753659338       -7.7106466298  MEMB      100             0.0000000000
     13305       106  POPC      C211           15.5865412330       26.5650876234       -7.0284003662  MEMB      100             0.0000000000
     13306       106  POPC      H11R           15.8117627046       27.5002833444       -7.5904509917  MEMB      100             0.0000000000
     13307       106  POPC      H11S           16.4488021624       26.3836675956       -6.3492175119  MEMB      100             0.0000000000
     13308       106  POPC      C212           14.3403810505       26.8222136360       -6.1584727976  MEMB      100             0.0000000000
     13309       106  POPC      H12R           13.4648659166       27.0794750991       -6.7962622873  MEMB      100             0.0000000000
     13310       106  POPC      H12S           14.5516050610       27.7120261336       -5.5218253939  MEMB      100             0.0000000000
     13311       106  POPC      C213           13.9747723969       25.6452025792       -5.2367656462  MEMB      100             0.0000000000
     13312       106  POPC      H13R           14.9047478569       25.1983086194       -4.8219306026  MEMB      100             0.0000000000
     13313       106  POPC      H13S           13.4485076568       24.8632762344       -5.8274106507  MEMB      100             0.0000000000
     13314       106  POPC      C214           13.0884290401       26.0748110786       -4.0614527458  MEMB      100             0.0000000000
     13315       106  POPC      H14R           12.2560646564       26.7036562041       -4.4535615350  MEMB      100             0.0000000000
     13316       106  POPC      H14S           13.7006767579       26.6965563341       -3.3710698848  MEMB      100             0.0000000000
     13317       106  POPC      C215           12.4795096493       24.9020862674       -3.2787232268  MEMB      100             0.0000000000
     13318       106  POPC      H15R           13.2778869023       24.2175006884       -2.9233362410  MEMB      100             0.0000000000
     13319       106  POPC      H15S           11.8283752285       24.3293903362       -3.9716878778  MEMB      100             0.0000000000
     13320       106  POPC      C216           11.6159374348       25.3559699937       -2.0925462351  MEMB      100             0.0000000000
     13321       106  POPC      H16R           10.9838398818       26.2037224991       -2.4315305651  MEMB      100             0.0000000000
     13322       106  POPC      H16S           12.2634240575       25.7234645367       -1.2673206252  MEMB      100             0.0000000000
     13323       106  POPC      C217           10.6708452387       24.2606841854       -1.5807605657  MEMB      100             0.0000000000
     13324       106  POPC      H17R           11.2695544081       23.4271727282       -1.1530767032  MEMB      100             0.0000000000
     13325       106  POPC      H17S           10.1093524421       23.8515990345       -2.4494489285  MEMB      100             0.0000000000
     13326       106  POPC      C218            9.6608407229       24.7632123549       -0.5470028885  MEMB      100             0.0000000000
     13327       106  POPC      H18R            8.9944019905       25.5289874325       -1.0002968264  MEMB      100             0.0000000000
     13328       106  POPC      H18S           10.1811793161       25.2244574781        0.3190335341  MEMB      100             0.0000000000
     13329       106  POPC      H18T            9.0309155271       23.9244754881       -0.1786576833  MEMB      100             0.0000000000
     13330       106  POPC      C33            16.4694363929       20.1465438149      -12.1966881723  MEMB      100             0.0000000000
     13331       106  POPC      H3X            17.1656137405       20.4769554180      -13.0021127125  MEMB      100             0.0000000000
     13332       106  POPC      H3Y            16.8511507592       19.1712315622      -11.8152909400  MEMB      100             0.0000000000
     13333       106  POPC      C34            16.5069451011       21.1657482714      -11.0590432418  MEMB      100             0.0000000000
     13334       106  POPC      H4X            15.7722949106       20.8262858380      -10.2917929166  MEMB      100             0.0000000000
     13335       106  POPC      H4Y            16.1881044255       22.1656575937      -11.4199415486  MEMB      100             0.0000000000
     13336       106  POPC      C35            17.8886343601       21.2637870315      -10.4018598735  MEMB      100             0.0000000000
     13337       106  POPC      H5X            18.6121323902       21.8106943822      -11.0430814103  MEMB      100             0.0000000000
     13338       106  POPC      H5Y            18.2744646394       20.2281892215      -10.2891443962  MEMB      100             0.0000000000
     13339       106  POPC      C36            17.8087020787       21.9095334720       -9.0137675989  MEMB      100             0.0000000000
     13340       106  POPC      H6X            16.7945044686       21.7025198495       -8.5986966607  MEMB      100             0.0000000000
     13341       106  POPC      H6Y            17.8952619106       23.0123262041       -9.0894183350  MEMB      100             0.0000000000
     13342       106  POPC      C37            18.8197117504       21.3506599833       -8.0007379182  MEMB      100             0.0000000000
     13343       106  POPC      H7X            19.1406064296       20.3205423865       -8.2556634811  MEMB      100             0.0000000000
     13344       106  POPC      H7Y            18.2745763537       21.2649209223       -7.0332602569  MEMB      100             0.0000000000
     13345       106  POPC      C38            20.0431314865       22.2444549059       -7.8102641459  MEMB      100             0.0000000000
     13346       106  POPC      H8X            19.7732712564       23.2944920878       -8.0631920292  MEMB      100             0.0000000000
     13347       106  POPC      H8Y            20.8438905569       21.9401686438       -8.5221554615  MEMB      100             0.0000000000
     13348       106  POPC      C39            20.5943684864       22.2334055757       -6.3769072125  MEMB      100             0.0000000000
     13349       106  POPC      H9X            21.3693237827       23.0261797426       -6.3401234930  MEMB      100             0.0000000000
     13350       106  POPC      H9Y            21.0761928085       21.2558951615       -6.1554060030  MEMB      100             0.0000000000
     13351       106  POPC      C310           19.6001674698       22.5770970075       -5.2572869344  MEMB      100             0.0000000000
     13352       106  POPC      H10X           20.1907762436       22.8299995213       -4.3465248418  MEMB      100             0.0000000000
     13353       106  POPC      H10Y           18.9850850111       21.6846265284       -5.0095990357  MEMB      100             0.0000000000
     13354       106  POPC      C311           18.6867742094       23.7613692803       -5.6054813664  MEMB      100             0.0000000000
     13355       106  POPC      H11X           17.8309749185       23.4038340386       -6.2188116428  MEMB      100             0.0000000000
     13356       106  POPC      H11Y           19.2612836168       24.4900095180       -6.2234090237  MEMB      100             0.0000000000
     13357       106  POPC      C312           18.1670612600       24.5274892972       -4.3839177303  MEMB      100             0.0000000000
     13358       106  POPC      H12X           17.4107326969       25.2690422747       -4.7229579192  MEMB      100             0.0000000000
     13359       106  POPC      H12Y           19.0226125318       25.0982049247       -3.9647044075  MEMB      100             0.0000000000
     13360       106  POPC      C313           17.5561535849       23.6645067873       -3.2700090520  MEMB      100             0.0000000000
     13361       106  POPC      H13X           17.1211297362       24.3547774502       -2.5106868330  MEMB      100             0.0000000000
     13362       106  POPC      H13Y           18.3581703496       23.0803214196       -2.7669995308  MEMB      100             0.0000000000
     13363       106  POPC      C314           16.4566346744       22.7105090575       -3.7553317103  MEMB      100             0.0000000000
     13364       106  POPC      H14X           16.9115730980       21.8565084408       -4.3027852654  MEMB      100             0.0000000000
     13365       106  POPC      H14Y           15.8036272284       23.2494061299       -4.4768392809  MEMB      100             0.0000000000
     13366       106  POPC      C315           15.5792351129       22.1678066557       -2.6203193427  MEMB      100             0.0000000000
     13367       106  POPC      H15X           14.8157561374       21.4955615168       -3.0712370071  MEMB      100             0.0000000000
     13368       106  POPC      H15Y           15.0410682703       23.0226773685       -2.1498971683  MEMB      100             0.0000000000
     13369       106  POPC      C316           16.3354019523       21.4021105402       -1.5317588794  MEMB      100             0.0000000000
     13370       106  POPC      H16X           15.6331514153       21.0676647955       -0.7372238355  MEMB      100             0.0000000000
     13371       106  POPC      H16Y           17.1056523010       22.0474906578       -1.0583260724  MEMB      100             0.0000000000
     13372       106  POPC      H16Z           16.8360826094       20.5075390559       -1.9606022069  MEMB      100             0.0000000000
     13373       107  POPC      N              11.4832764845      -26.8903045122      -17.8632994280  MEMB      101             0.0000000000
     13374       107  POPC      C12            10.4470600071      -26.2509971311      -18.7700109249  MEMB      101             0.0000000000
     13375       107  POPC      H12A           10.7590593589      -25.2481818672      -19.0235931365  MEMB      101             0.0000000000
     13376       107  POPC      H12B            9.5095926982      -26.1630366635      -18.2304193484  MEMB      101             0.0000000000
     13377       107  POPC      C13            10.8586640970      -28.0896426270      -17.2070578587  MEMB      101             0.0000000000
     13378       107  POPC      H13A            9.9781667595      -27.8157034127      -16.6353290136  MEMB      101             0.0000000000
     13379       107  POPC      H13B           10.4625077247      -28.7621031336      -17.9767006235  MEMB      101             0.0000000000
     13380       107  POPC      H13C           11.5336185700      -28.6319996719      -16.5650655107  MEMB      101             0.0000000000
     13381       107  POPC      C14            12.6498352970      -27.3203214863      -18.7008902834  MEMB      101             0.0000000000
     13382       107  POPC      H14A           12.2953804159      -28.0347727787      -19.4468132760  MEMB      101             0.0000000000
     13383       107  POPC      H14B           13.0805604250      -26.4796116721      -19.2404300235  MEMB      101             0.0000000000
     13384       107  POPC      H14C           13.4296850896      -27.7641089054      -18.1049183832  MEMB      101             0.0000000000
     13385       107  POPC      C15            11.9567027638      -25.9159123272      -16.8293277173  MEMB      101             0.0000000000
     13386       107  POPC      H15A           11.1371382644      -25.4804758281      -16.2657424540  MEMB      101             0.0000000000
     13387       107  POPC      H15B           12.5104832487      -25.1097908328      -17.2981094564  MEMB      101             0.0000000000
     13388       107  POPC      H15C           12.6003258010      -26.4133181087      -16.1130665199  MEMB      101             0.0000000000
     13389       107  POPC      C11            10.0810034107      -27.0204382926      -20.0549597391  MEMB      101             0.0000000000
     13390       107  POPC      H11A           10.9683142521      -27.3039886871      -20.6574043822  MEMB      101             0.0000000000
     13391       107  POPC      H11B            9.5174828251      -26.2881522450      -20.6920074174  MEMB      101             0.0000000000
     13392       107  POPC      P               7.9322825710      -28.3644994486      -20.4327775790  MEMB      101             0.0000000000
     13393       107  POPC      O13             8.2608303039      -28.7478287009      -21.8222858748  MEMB      101             0.0000000000
     13394       107  POPC      O14             7.1739226781      -27.0943654184      -20.2503408286  MEMB      101             0.0000000000
     13395       107  POPC      O12             9.3342863779      -28.2012341908      -19.7086614198  MEMB      101             0.0000000000
     13396       107  POPC      O11             7.2368704078      -29.5941884721      -19.6971070341  MEMB      101             0.0000000000
     13397       107  POPC      C1              5.9300904980      -29.3551678756      -19.1288660506  MEMB      101             0.0000000000
     13398       107  POPC      HA              5.3075163013      -30.2559043856      -19.2969981180  MEMB      101             0.0000000000
     13399       107  POPC      HB              5.3656320480      -28.5169221993      -19.6068219300  MEMB      101             0.0000000000
     13400       107  POPC      C2              5.9636027008      -29.1031986004      -17.5917762475  MEMB      101             0.0000000000
     13401       107  POPC      HS              4.9270563889      -28.8725247642      -17.2400637717  MEMB      101             0.0000000000
     13402       107  POPC      O21             6.8854194753      -28.0621672087      -17.2121214551  MEMB      101             0.0000000000
     13403       107  POPC      C21             6.3763539408      -26.8444716733      -17.3167116484  MEMB      101             0.0000000000
     13404       107  POPC      O22             5.3043027972      -26.5553268443      -17.8192943374  MEMB      101             0.0000000000
     13405       107  POPC      C22             7.2124971600      -25.8660840403      -16.5076948526  MEMB      101             0.0000000000
     13406       107  POPC      H2R             7.3409438727      -24.9580712233      -17.1318776889  MEMB      101             0.0000000000
     13407       107  POPC      H2S             8.1985561438      -26.3055142191      -16.2685632807  MEMB      101             0.0000000000
     13408       107  POPC      C3              6.3883089499      -30.3958374736      -16.8662956124  MEMB      101             0.0000000000
     13409       107  POPC      HX              7.2504682050      -30.8037086701      -17.4472261327  MEMB      101             0.0000000000
     13410       107  POPC      HY              5.5468511836      -31.1198260473      -16.9423404126  MEMB      101             0.0000000000
     13411       107  POPC      O31             6.6739252535      -30.1393033067      -15.4720479710  MEMB      101             0.0000000000
     13412       107  POPC      C31             7.9074104039      -30.3962241361      -15.0685688766  MEMB      101             0.0000000000
     13413       107  POPC      O32             8.7893142575      -30.8909479457      -15.7516652589  MEMB      101             0.0000000000
     13414       107  POPC      C32             8.0233004959      -30.0374028036      -13.5929583173  MEMB      101             0.0000000000
     13415       107  POPC      H2X             7.5559110231      -30.8670728859      -13.0212739788  MEMB      101             0.0000000000
     13416       107  POPC      H2Y             7.4445332928      -29.1171548339      -13.3940261156  MEMB      101             0.0000000000
     13417       107  POPC      C23             6.4360324530      -25.5014687964      -15.2234746995  MEMB      101             0.0000000000
     13418       107  POPC      H3R             5.3480447861      -25.3938520508      -15.4381368739  MEMB      101             0.0000000000
     13419       107  POPC      H3S             6.7769627359      -24.5106911815      -14.8636253301  MEMB      101             0.0000000000
     13420       107  POPC      C24             6.6503226819      -26.5186651054      -14.1002170357  MEMB      101             0.0000000000
     13421       107  POPC      H4R             7.7357117237      -26.5673881328      -13.8597221980  MEMB      101             0.0000000000
     13422       107  POPC      H4S             6.3294567577      -27.5275860398      -14.4467008647  MEMB      101             0.0000000000
     13423       107  POPC      C25             5.8729889644      -26.1468544652      -12.8317236143  MEMB      101             0.0000000000
     13424       107  POPC      H5R             4.8163428839      -26.4773551966      -12.9525487472  MEMB      101             0.0000000000
     13425       107  POPC      H5S             5.8729717230      -25.0393640657      -12.7059695362  MEMB      101             0.0000000000
     13426       107  POPC      C26             6.4676899320      -26.7674365678      -11.5666703608  MEMB      101             0.0000000000
     13427       107  POPC      H6R             7.3931869764      -26.2147135652      -11.2889116586  MEMB      101             0.0000000000
     13428       107  POPC      H6S             6.7495410769      -27.8198474444      -11.7925535597  MEMB      101             0.0000000000
     13429       107  POPC      C27             5.4867782673      -26.7795784310      -10.3804031460  MEMB      101             0.0000000000
     13430       107  POPC      H7R             4.6579883267      -27.4750784694      -10.6378780014  MEMB      101             0.0000000000
     13431       107  POPC      H7S             5.0353885568      -25.7696442649      -10.2568741309  MEMB      101             0.0000000000
     13432       107  POPC      C28             6.1136410815      -27.2063731834       -9.0333000199  MEMB      101             0.0000000000
     13433       107  POPC      H8R             5.2953314089      -27.3629568897       -8.2958421014  MEMB      101             0.0000000000
     13434       107  POPC      H8S             6.7284134963      -26.3567791165       -8.6593549745  MEMB      101             0.0000000000
     13435       107  POPC      C29             6.9962355314      -28.4223902873       -9.1713024035  MEMB      101             0.0000000000
     13436       107  POPC      H91             7.8246464575      -28.2761856341       -9.8768654414  MEMB      101             0.0000000000
     13437       107  POPC      C210            6.9311585799      -29.6048652818       -8.5325098330  MEMB      101             0.0000000000
     13438       107  POPC      H101            7.6825679710      -30.3664566532       -8.7821270894  MEMB      101             0.0000000000
     13439       107  POPC      C211            5.9457358451      -30.0495508172       -7.4864038862  MEMB      101             0.0000000000
     13440       107  POPC      H11R            5.6751694993      -31.1159455571       -7.6487585611  MEMB      101             0.0000000000
     13441       107  POPC      H11S            5.0012216733      -29.4698095501       -7.5369198871  MEMB      101             0.0000000000
     13442       107  POPC      C212            6.5214908373      -29.8940601854       -6.0719319723  MEMB      101             0.0000000000
     13443       107  POPC      H12R            7.5207730717      -30.3693384418       -5.9838049719  MEMB      101             0.0000000000
     13444       107  POPC      H12S            5.8565523393      -30.4457656462       -5.3750768603  MEMB      101             0.0000000000
     13445       107  POPC      C213            6.5969397794      -28.4205220035       -5.6497761739  MEMB      101             0.0000000000
     13446       107  POPC      H13R            5.6145946754      -27.9329480481       -5.8381585001  MEMB      101             0.0000000000
     13447       107  POPC      H13S            7.3538718367      -27.8964162362       -6.2743011275  MEMB      101             0.0000000000
     13448       107  POPC      C214            6.9569644102      -28.2496006740       -4.1763783659  MEMB      101             0.0000000000
     13449       107  POPC      H14R            7.9819586924      -28.6500106289       -4.0221387647  MEMB      101             0.0000000000
     13450       107  POPC      H14S            6.2732988546      -28.8560787941       -3.5444348851  MEMB      101             0.0000000000
     13451       107  POPC      C215            6.8768553248      -26.7891337220       -3.7132168565  MEMB      101             0.0000000000
     13452       107  POPC      H15R            6.9088918974      -26.7800235462       -2.6002875684  MEMB      101             0.0000000000
     13453       107  POPC      H15S            5.8985063505      -26.3500977502       -4.0063175412  MEMB      101             0.0000000000
     13454       107  POPC      C216            8.0285336124      -25.9351010499       -4.2636229602  MEMB      101             0.0000000000
     13455       107  POPC      H16R            7.6449442712      -25.2527580122       -5.0535207020  MEMB      101             0.0000000000
     13456       107  POPC      H16S            8.7738834864      -26.6042462322       -4.7489116322  MEMB      101             0.0000000000
     13457       107  POPC      C217            8.7471154882      -25.1255255008       -3.1785695185  MEMB      101             0.0000000000
     13458       107  POPC      H17R            9.6318143706      -24.6147553343       -3.6233122032  MEMB      101             0.0000000000
     13459       107  POPC      H17S            9.1243550551      -25.8228856686       -2.3983018150  MEMB      101             0.0000000000
     13460       107  POPC      C218            7.8517765271      -24.0918159745       -2.5059854168  MEMB      101             0.0000000000
     13461       107  POPC      H18R            7.4800118824      -23.3602343769       -3.2540592844  MEMB      101             0.0000000000
     13462       107  POPC      H18S            8.4158877523      -23.5466565544       -1.7182971973  MEMB      101             0.0000000000
     13463       107  POPC      H18T            6.9781389979      -24.5855330041       -2.0313601972  MEMB      101             0.0000000000
     13464       107  POPC      C33             9.4850534831      -29.8780813413      -13.1307554774  MEMB      101             0.0000000000
     13465       107  POPC      H3X             9.9824515469      -29.0194230156      -13.6320794334  MEMB      101             0.0000000000
     13466       107  POPC      H3Y            10.0349600673      -30.8003555776      -13.4193547229  MEMB      101             0.0000000000
     13467       107  POPC      C34             9.5813355479      -29.7273182424      -11.6119031546  MEMB      101             0.0000000000
     13468       107  POPC      H4X             8.5942895298      -29.9925065130      -11.1679818582  MEMB      101             0.0000000000
     13469       107  POPC      H4Y             9.7974997998      -28.6693371766      -11.3470425166  MEMB      101             0.0000000000
     13470       107  POPC      C35            10.6317022317      -30.6575337048      -10.9944709797  MEMB      101             0.0000000000
     13471       107  POPC      H5X            11.6492316770      -30.3026930774      -11.2672419213  MEMB      101             0.0000000000
     13472       107  POPC      H5Y            10.5049356168      -31.6792393104      -11.4218539771  MEMB      101             0.0000000000
     13473       107  POPC      C36            10.5085273371      -30.7679653126       -9.4709148191  MEMB      101             0.0000000000
     13474       107  POPC      H6X            11.3176301448      -31.4281303624       -9.0872290536  MEMB      101             0.0000000000
     13475       107  POPC      H6Y             9.5442372963      -31.2724469474       -9.2399375169  MEMB      101             0.0000000000
     13476       107  POPC      C37            10.5552894064      -29.4153583714       -8.7413631800  MEMB      101             0.0000000000
     13477       107  POPC      H7X             9.7982535982      -28.7270966644       -9.1715228232  MEMB      101             0.0000000000
     13478       107  POPC      H7Y            11.5486851774      -28.9385050181       -8.8864131740  MEMB      101             0.0000000000
     13479       107  POPC      C38            10.2471091482      -29.5581540379       -7.2473408143  MEMB      101             0.0000000000
     13480       107  POPC      H8X             9.4333986635      -30.3059075559       -7.1223078481  MEMB      101             0.0000000000
     13481       107  POPC      H8Y             9.8721654038      -28.5942376996       -6.8351597844  MEMB      101             0.0000000000
     13482       107  POPC      C39            11.4699990968      -30.0098561739       -6.4500402515  MEMB      101             0.0000000000
     13483       107  POPC      H9X            12.0732167819      -30.7123742512       -7.0635815320  MEMB      101             0.0000000000
     13484       107  POPC      H9Y            11.1241456141      -30.5703580092       -5.5517526078  MEMB      101             0.0000000000
     13485       107  POPC      C310           12.3455569039      -28.8370061671       -5.9951215741  MEMB      101             0.0000000000
     13486       107  POPC      H10X           12.0021280845      -27.8868262142       -6.4608410163  MEMB      101             0.0000000000
     13487       107  POPC      H10Y           13.3882369060      -29.0138246912       -6.3429779365  MEMB      101             0.0000000000
     13488       107  POPC      C311           12.3537973048      -28.6960158947       -4.4688730789  MEMB      101             0.0000000000
     13489       107  POPC      H11X           13.1739096440      -28.0038592131       -4.1873977935  MEMB      101             0.0000000000
     13490       107  POPC      H11Y           12.5840361080      -29.6848717957       -4.0141188768  MEMB      101             0.0000000000
     13491       107  POPC      C312           11.0317540920      -28.1647519782       -3.8906079251  MEMB      101             0.0000000000
     13492       107  POPC      H12X           10.1745863059      -28.7616179116       -4.2684249513  MEMB      101             0.0000000000
     13493       107  POPC      H12Y           10.8985252772      -27.1209215002       -4.2547101233  MEMB      101             0.0000000000
     13494       107  POPC      C313           11.0267539370      -28.1644957803       -2.3538874625  MEMB      101             0.0000000000
     13495       107  POPC      H13X           10.6467374861      -27.1966730144       -1.9717287405  MEMB      101             0.0000000000
     13496       107  POPC      H13Y           12.0835610156      -28.2626342093       -2.0186288368  MEMB      101             0.0000000000
     13497       107  POPC      C314           10.2071635231      -29.2909242489       -1.7103715024  MEMB      101             0.0000000000
     13498       107  POPC      H14X           10.7658311109      -29.6888843196       -0.8345725907  MEMB      101             0.0000000000
     13499       107  POPC      H14Y           10.1208384500      -30.1163669159       -2.4505513589  MEMB      101             0.0000000000
     13500       107  POPC      C315            8.7946218294      -28.8781827143       -1.2511657590  MEMB      101             0.0000000000
     13501       107  POPC      H15X            8.1470500570      -29.7848034768       -1.2317906368  MEMB      101             0.0000000000
     13502       107  POPC      H15Y            8.3769351935      -28.1947484011       -2.0106906177  MEMB      101             0.0000000000
     13503       107  POPC      C316            8.6925282298      -28.1893398710        0.1140905780  MEMB      101             0.0000000000
     13504       107  POPC      H16X            7.6278085334      -28.0604255300        0.4025596765  MEMB      101             0.0000000000
     13505       107  POPC      H16Y            9.1606487423      -27.1820426610        0.0792742264  MEMB      101             0.0000000000
     13506       107  POPC      H16Z            9.1987341031      -28.7871116265        0.9001168725  MEMB      101             0.0000000000
     13507       108  POPC      N              28.1667329798       -4.9971416455      -18.2632963864  MEMB      102             0.0000000000
     13508       108  POPC      C12            26.8997097591       -4.4643957719      -18.8993342234  MEMB      102             0.0000000000
     13509       108  POPC      H12A           26.0488809032       -4.8344370633      -18.3468859105  MEMB      102             0.0000000000
     13510       108  POPC      H12B           26.8292304708       -4.8490263369      -19.9092947856  MEMB      102             0.0000000000
     13511       108  POPC      C13            28.1565368448       -4.6871988093      -16.8064107999  MEMB      102             0.0000000000
     13512       108  POPC      H13A           29.0861421039       -5.0096583206      -16.3564927813  MEMB      102             0.0000000000
     13513       108  POPC      H13B           28.0584369154       -3.6142539377      -16.6430630765  MEMB      102             0.0000000000
     13514       108  POPC      H13C           27.3416742634       -5.1846231164      -16.3083117433  MEMB      102             0.0000000000
     13515       108  POPC      C14            28.3298038648       -6.4734714593      -18.4984278687  MEMB      102             0.0000000000
     13516       108  POPC      H14A           29.3088966916       -6.8120538398      -18.1549224998  MEMB      102             0.0000000000
     13517       108  POPC      H14B           27.5691337653       -7.0715006885      -18.0227548351  MEMB      102             0.0000000000
     13518       108  POPC      H14C           28.3516779338       -6.7387382838      -19.5556748971  MEMB      102             0.0000000000
     13519       108  POPC      C15            29.3700473618       -4.3423657315      -18.8677869552  MEMB      102             0.0000000000
     13520       108  POPC      H15A           30.2492152039       -4.5322914734      -18.2625764048  MEMB      102             0.0000000000
     13521       108  POPC      H15B           29.2060795917       -3.2757009637      -18.9822221421  MEMB      102             0.0000000000
     13522       108  POPC      H15C           29.5866333198       -4.7539247226      -19.8525650559  MEMB      102             0.0000000000
     13523       108  POPC      C11            26.7538199763       -2.9278930638      -19.0195811083  MEMB      102             0.0000000000
     13524       108  POPC      H11A           27.0819697669       -2.4827083719      -18.0569877362  MEMB      102             0.0000000000
     13525       108  POPC      H11B           25.6735926705       -2.6824270246      -19.1696992136  MEMB      102             0.0000000000
     13526       108  POPC      P              27.6237130830       -0.9382859767      -20.5394269416  MEMB      102             0.0000000000
     13527       108  POPC      O13            26.2801015544       -0.3069368024      -20.5938432533  MEMB      102             0.0000000000
     13528       108  POPC      O14            28.4331633674       -0.8687608178      -21.7842539369  MEMB      102             0.0000000000
     13529       108  POPC      O12            27.5322229823       -2.4626798807      -20.1166196485  MEMB      102             0.0000000000
     13530       108  POPC      O11            28.4781632778       -0.2922008797      -19.3652945399  MEMB      102             0.0000000000
     13531       108  POPC      C1             27.8768177659        0.1077072774      -18.1335101870  MEMB      102             0.0000000000
     13532       108  POPC      HA             27.0085484827       -0.5185523779      -17.8339342304  MEMB      102             0.0000000000
     13533       108  POPC      HB             27.5081116780        1.1553802328      -18.2394737777  MEMB      102             0.0000000000
     13534       108  POPC      C2             28.9096952676        0.0732169831      -16.9767396679  MEMB      102             0.0000000000
     13535       108  POPC      HS             29.5598695356        0.9538914331      -17.2085922026  MEMB      102             0.0000000000
     13536       108  POPC      O21            29.6520883553       -1.1631661388      -16.9298637663  MEMB      102             0.0000000000
     13537       108  POPC      C21            30.8891909007       -0.9774160827      -16.4654387096  MEMB      102             0.0000000000
     13538       108  POPC      O22            31.4268105459        0.1053753562      -16.3435142831  MEMB      102             0.0000000000
     13539       108  POPC      C22            31.5481359455       -2.2902130011      -16.1066958602  MEMB      102             0.0000000000
     13540       108  POPC      H2R            32.5603677176       -2.0897194056      -15.7004047532  MEMB      102             0.0000000000
     13541       108  POPC      H2S            31.6490122925       -2.8810220090      -17.0402061751  MEMB      102             0.0000000000
     13542       108  POPC      C3             28.2604794391        0.2963648694      -15.5867544829  MEMB      102             0.0000000000
     13543       108  POPC      HX             27.5507816711        1.1427638298      -15.7219065442  MEMB      102             0.0000000000
     13544       108  POPC      HY             29.0670099372        0.6157693292      -14.8864931661  MEMB      102             0.0000000000
     13545       108  POPC      O31            27.5852798757       -0.8903540362      -15.0761580378  MEMB      102             0.0000000000
     13546       108  POPC      C31            26.9012290610       -0.5769551137      -13.9609355354  MEMB      102             0.0000000000
     13547       108  POPC      O32            26.8395093104        0.5552764815      -13.5147163551  MEMB      102             0.0000000000
     13548       108  POPC      C32            26.2092802066       -1.7738519849      -13.2986610694  MEMB      102             0.0000000000
     13549       108  POPC      H2X            25.1753063417       -1.4244763716      -13.0932268279  MEMB      102             0.0000000000
     13550       108  POPC      H2Y            26.6834662521       -1.9369673607      -12.3119471983  MEMB      102             0.0000000000
     13551       108  POPC      C23            30.6897783752       -3.0430247929      -15.0885057447  MEMB      102             0.0000000000
     13552       108  POPC      H3R            31.0461738725       -4.0960613552      -15.0381969041  MEMB      102             0.0000000000
     13553       108  POPC      H3S            29.6297694568       -3.0635409310      -15.4174557458  MEMB      102             0.0000000000
     13554       108  POPC      C24            30.7229373531       -2.4460915370      -13.6821018451  MEMB      102             0.0000000000
     13555       108  POPC      H4R            30.6088033851       -1.3394650030      -13.6837926389  MEMB      102             0.0000000000
     13556       108  POPC      H4S            31.7111208051       -2.6867319439      -13.2385503480  MEMB      102             0.0000000000
     13557       108  POPC      C25            29.6061915064       -3.0818185681      -12.8520090618  MEMB      102             0.0000000000
     13558       108  POPC      H5R            29.4434370552       -4.1157661370      -13.2396222023  MEMB      102             0.0000000000
     13559       108  POPC      H5S            28.6661436923       -2.5225862117      -13.0002326871  MEMB      102             0.0000000000
     13560       108  POPC      C26            29.9214701062       -3.2128462019      -11.3648535332  MEMB      102             0.0000000000
     13561       108  POPC      H6R            30.9800214855       -3.5332791493      -11.2609219478  MEMB      102             0.0000000000
     13562       108  POPC      H6S            29.2874498150       -4.0264731374      -10.9440103737  MEMB      102             0.0000000000
     13563       108  POPC      C27            29.6463817284       -1.9339820779      -10.5659680590  MEMB      102             0.0000000000
     13564       108  POPC      H7R            28.6169590713       -1.5874481675      -10.8097307351  MEMB      102             0.0000000000
     13565       108  POPC      H7S            30.3501132455       -1.1356156697      -10.8898590395  MEMB      102             0.0000000000
     13566       108  POPC      C28            29.7338181492       -2.1522749892       -9.0442836800  MEMB      102             0.0000000000
     13567       108  POPC      H8R            28.9776101787       -2.9187630527       -8.7611651143  MEMB      102             0.0000000000
     13568       108  POPC      H8S            29.4546786128       -1.2017491008       -8.5382698466  MEMB      102             0.0000000000
     13569       108  POPC      C29            31.1128708709       -2.6063157781       -8.6440781914  MEMB      102             0.0000000000
     13570       108  POPC      H91            31.7910609771       -2.7962239436       -9.4860307096  MEMB      102             0.0000000000
     13571       108  POPC      C210           31.5883356650       -2.7561043734       -7.3990600477  MEMB      102             0.0000000000
     13572       108  POPC      H101           32.6305800153       -3.0897255244       -7.2693177407  MEMB      102             0.0000000000
     13573       108  POPC      C211           30.8405108977       -2.5000266769       -6.1194732990  MEMB      102             0.0000000000
     13574       108  POPC      H11R           31.4176919098       -2.9436779660       -5.2771480883  MEMB      102             0.0000000000
     13575       108  POPC      H11S           29.8475668859       -3.0044613472       -6.1204154417  MEMB      102             0.0000000000
     13576       108  POPC      C212           30.6360712307       -1.0034237494       -5.8161138985  MEMB      102             0.0000000000
     13577       108  POPC      H12R           29.7114539965       -0.6474033817       -6.3227062225  MEMB      102             0.0000000000
     13578       108  POPC      H12S           31.4883042881       -0.3988437463       -6.2043389314  MEMB      102             0.0000000000
     13579       108  POPC      C213           30.5393691383       -0.7425446380       -4.3066743857  MEMB      102             0.0000000000
     13580       108  POPC      H13R           31.5414289402       -0.9446624739       -3.8665559900  MEMB      102             0.0000000000
     13581       108  POPC      H13S           29.8249833197       -1.4652406273       -3.8523204398  MEMB      102             0.0000000000
     13582       108  POPC      C214           30.0928586970        0.6877588465       -3.9711078372  MEMB      102             0.0000000000
     13583       108  POPC      H14R           29.0247407756        0.6640511175       -3.6608504770  MEMB      102             0.0000000000
     13584       108  POPC      H14S           30.1464215199        1.3086293664       -4.8949450274  MEMB      102             0.0000000000
     13585       108  POPC      C215           30.9386997261        1.3855525823       -2.8919531880  MEMB      102             0.0000000000
     13586       108  POPC      H15R           30.4679180062        2.3680792783       -2.6591829390  MEMB      102             0.0000000000
     13587       108  POPC      H15S           31.9457247002        1.5964689678       -3.3190781200  MEMB      102             0.0000000000
     13588       108  POPC      C216           31.1246430606        0.6049851324       -1.5779664858  MEMB      102             0.0000000000
     13589       108  POPC      H16R           31.6889147368        1.2518785313       -0.8683074991  MEMB      102             0.0000000000
     13590       108  POPC      H16S           31.7467183949       -0.2976630090       -1.7623464110  MEMB      102             0.0000000000
     13591       108  POPC      C217           29.8151592738        0.1683412065       -0.9080724582  MEMB      102             0.0000000000
     13592       108  POPC      H17R           29.2790819926       -0.5337964137       -1.5867515676  MEMB      102             0.0000000000
     13593       108  POPC      H17S           29.1706848804        1.0623374532       -0.7700267346  MEMB      102             0.0000000000
     13594       108  POPC      C218           30.0300474645       -0.5139712746        0.4459374668  MEMB      102             0.0000000000
     13595       108  POPC      H18R           30.7196290728       -1.3764174607        0.3317958701  MEMB      102             0.0000000000
     13596       108  POPC      H18S           30.4825283902        0.1924883889        1.1743560769  MEMB      102             0.0000000000
     13597       108  POPC      H18T           29.0685383046       -0.8842191579        0.8609072868  MEMB      102             0.0000000000
     13598       108  POPC      C33            26.1186908566       -3.1017777200      -14.0978680638  MEMB      102             0.0000000000
     13599       108  POPC      H3X            27.0976165250       -3.6199893337      -14.1363140094  MEMB      102             0.0000000000
     13600       108  POPC      H3Y            25.8247662072       -2.8505435171      -15.1458015353  MEMB      102             0.0000000000
     13601       108  POPC      C34            25.0328499403       -4.0511703833      -13.5439858974  MEMB      102             0.0000000000
     13602       108  POPC      H4X            24.5829650641       -4.6015818721      -14.4039639541  MEMB      102             0.0000000000
     13603       108  POPC      H4Y            24.2115870041       -3.4511927565      -13.0940523075  MEMB      102             0.0000000000
     13604       108  POPC      C35            25.5138626151       -5.1185986208      -12.5390566453  MEMB      102             0.0000000000
     13605       108  POPC      H5X            26.2491648973       -5.7799713974      -13.0479845547  MEMB      102             0.0000000000
     13606       108  POPC      H5Y            24.6365957504       -5.7520114770      -12.2660025250  MEMB      102             0.0000000000
     13607       108  POPC      C36            26.1383069844       -4.5972271401      -11.2315395573  MEMB      102             0.0000000000
     13608       108  POPC      H6X            27.0457639005       -3.9995240562      -11.4625524212  MEMB      102             0.0000000000
     13609       108  POPC      H6Y            26.4583443430       -5.4775379119      -10.6261407036  MEMB      102             0.0000000000
     13610       108  POPC      C37            25.1830651719       -3.7497637761      -10.3793077722  MEMB      102             0.0000000000
     13611       108  POPC      H7X            24.2336228048       -4.3149801612      -10.2349617387  MEMB      102             0.0000000000
     13612       108  POPC      H7Y            24.9332166735       -2.8212138929      -10.9344975684  MEMB      102             0.0000000000
     13613       108  POPC      C38            25.7593208789       -3.3731044522       -9.0053502493  MEMB      102             0.0000000000
     13614       108  POPC      H8X            26.7569540139       -3.8491159249       -8.8740927539  MEMB      102             0.0000000000
     13615       108  POPC      H8Y            25.0905854197       -3.7885639863       -8.2189437234  MEMB      102             0.0000000000
     13616       108  POPC      C39            25.9106990494       -1.8565651709       -8.7968936728  MEMB      102             0.0000000000
     13617       108  POPC      H9X            24.9373670571       -1.3510665589       -8.9806553006  MEMB      102             0.0000000000
     13618       108  POPC      H9Y            26.6378621393       -1.4740900954       -9.5488413504  MEMB      102             0.0000000000
     13619       108  POPC      C310           26.4092979470       -1.4904100816       -7.3885808279  MEMB      102             0.0000000000
     13620       108  POPC      H10X           26.7314901800       -0.4244839720       -7.3870731571  MEMB      102             0.0000000000
     13621       108  POPC      H10Y           27.3021592695       -2.1086848684       -7.1472396072  MEMB      102             0.0000000000
     13622       108  POPC      C311           25.3374486300       -1.6694853633       -6.3018752737  MEMB      102             0.0000000000
     13623       108  POPC      H11X           24.9892910578       -2.7244651113       -6.2757839264  MEMB      102             0.0000000000
     13624       108  POPC      H11Y           24.4609428745       -1.0370252171       -6.5752208554  MEMB      102             0.0000000000
     13625       108  POPC      C312           25.8133155136       -1.2559689948       -4.8990561740  MEMB      102             0.0000000000
     13626       108  POPC      H12X           24.9236159464       -1.2084518729       -4.2325097364  MEMB      102             0.0000000000
     13627       108  POPC      H12Y           26.2535566397       -0.2347150964       -4.9538238524  MEMB      102             0.0000000000
     13628       108  POPC      C313           26.8241827688       -2.2120700157       -4.2505141273  MEMB      102             0.0000000000
     13629       108  POPC      H13X           27.2896581220       -1.6928223666       -3.3804560268  MEMB      102             0.0000000000
     13630       108  POPC      H13Y           27.6413396562       -2.4498052972       -4.9652753696  MEMB      102             0.0000000000
     13631       108  POPC      C314           26.1782569742       -3.5053565528       -3.7374577127  MEMB      102             0.0000000000
     13632       108  POPC      H14X           25.6641374565       -4.0279351945       -4.5745330027  MEMB      102             0.0000000000
     13633       108  POPC      H14Y           25.4068655408       -3.2535645063       -2.9737884972  MEMB      102             0.0000000000
     13634       108  POPC      C315           27.2040234524       -4.4571860955       -3.1168899294  MEMB      102             0.0000000000
     13635       108  POPC      H15X           27.7303872970       -3.9292204813       -2.2880056626  MEMB      102             0.0000000000
     13636       108  POPC      H15Y           27.9656376857       -4.7059229903       -3.8906668484  MEMB      102             0.0000000000
     13637       108  POPC      C316           26.5848420327       -5.7499849299       -2.5875330533  MEMB      102             0.0000000000
     13638       108  POPC      H16X           27.3644680257       -6.4036216533       -2.1398625974  MEMB      102             0.0000000000
     13639       108  POPC      H16Y           26.0856604004       -6.3074420167       -3.4086424275  MEMB      102             0.0000000000
     13640       108  POPC      H16Z           25.8265148531       -5.5244053905       -1.8075279898  MEMB      102             0.0000000000
     13641       109  POPS      N             -11.8040846957       25.9712203793      -20.8766013865  MEMB      103             0.0000000000
     13642       109  POPS      HN1           -12.0456424964       26.9819841727      -20.9108844601  MEMB      103             0.0000000000
     13643       109  POPS      HN2           -11.5142163292       25.7439927397      -19.8954917065  MEMB      103             0.0000000000
     13644       109  POPS      HN3           -11.1032990514       25.7069151034      -21.5909528088  MEMB      103             0.0000000000
     13645       109  POPS      C12           -13.0940812019       25.2491129372      -21.0770135010  MEMB      103             0.0000000000
     13646       109  POPS      H12A          -12.8668968009       24.2773232363      -21.4874635688  MEMB      103             0.0000000000
     13647       109  POPS      C13           -14.0625937054       25.9834518623      -22.0201830977  MEMB      103             0.0000000000
     13648       109  POPS      O13A          -13.6908202848       27.0060984915      -22.6709166782  MEMB      103             0.0000000000
     13649       109  POPS      O13B          -15.2418270697       25.5444086648      -22.0455404939  MEMB      103             0.0000000000
     13650       109  POPS      C11           -13.8154138200       25.0582811444      -19.7159492956  MEMB      103             0.0000000000
     13651       109  POPS      H11A          -14.3938456617       24.1077337502      -19.7264395268  MEMB      103             0.0000000000
     13652       109  POPS      H11B          -14.5828016899       25.8694796000      -19.6029052287  MEMB      103             0.0000000000
     13653       109  POPS      P             -12.9259930149       26.2150165450      -17.5975975883  MEMB      103             0.0000000000
     13654       109  POPS      O13           -12.6160536551       27.4330108134      -18.3820270273  MEMB      103             0.0000000000
     13655       109  POPS      O14           -12.0209298686       25.8595159094      -16.5011540206  MEMB      103             0.0000000000
     13656       109  POPS      O12           -12.8685797422       25.0198693726      -18.6404971180  MEMB      103             0.0000000000
     13657       109  POPS      O11           -14.4345972539       26.1395497944      -17.1452083174  MEMB      103             0.0000000000
     13658       109  POPS      C1            -14.8813497602       24.9993005983      -16.3954972181  MEMB      103             0.0000000000
     13659       109  POPS      HA            -14.0637532582       24.3145769828      -16.0549489639  MEMB      103             0.0000000000
     13660       109  POPS      HB            -15.5847625934       24.4074063932      -17.0203942976  MEMB      103             0.0000000000
     13661       109  POPS      C2            -15.6207748097       25.4882558257      -15.1373486868  MEMB      103             0.0000000000
     13662       109  POPS      HS            -16.3958472165       26.1999044909      -15.5175376141  MEMB      103             0.0000000000
     13663       109  POPS      O21           -14.6708400212       26.0814217675      -14.2247365418  MEMB      103             0.0000000000
     13664       109  POPS      C21           -14.9810011413       27.3038000044      -13.8531419684  MEMB      103             0.0000000000
     13665       109  POPS      O22           -15.8803818638       27.9845189743      -14.3122688708  MEMB      103             0.0000000000
     13666       109  POPS      C22           -14.1862615322       27.6860384109      -12.6047834537  MEMB      103             0.0000000000
     13667       109  POPS      H2R           -13.5092992165       28.5264787027      -12.8500178693  MEMB      103             0.0000000000
     13668       109  POPS      H2S           -13.5907481876       26.8162462368      -12.2721159611  MEMB      103             0.0000000000
     13669       109  POPS      C3            -16.3823930395       24.3492254642      -14.4095383162  MEMB      103             0.0000000000
     13670       109  POPS      HX            -17.0176348002       23.8265285742      -15.1583530467  MEMB      103             0.0000000000
     13671       109  POPS      HY            -17.0784420619       24.8099674743      -13.6681597058  MEMB      103             0.0000000000
     13672       109  POPS      O31           -15.4846653894       23.3836951492      -13.8205045253  MEMB      103             0.0000000000
     13673       109  POPS      C31           -15.1603433678       23.6398326061      -12.5566038823  MEMB      103             0.0000000000
     13674       109  POPS      O32           -15.5993559679       24.5449818603      -11.8682767020  MEMB      103             0.0000000000
     13675       109  POPS      C32           -14.2804273505       22.5166871710      -12.0148709889  MEMB      103             0.0000000000
     13676       109  POPS      H2X           -14.5279187282       21.5705771090      -12.5176606325  MEMB      103             0.0000000000
     13677       109  POPS      H2Y           -14.4985095925       22.4053085876      -10.9338717602  MEMB      103             0.0000000000
     13678       109  POPS      C23           -15.1970814627       28.0815679576      -11.5103436446  MEMB      103             0.0000000000
     13679       109  POPS      H3R           -16.0065885806       27.3176765567      -11.5069149002  MEMB      103             0.0000000000
     13680       109  POPS      H3S           -15.6446643923       29.0701069745      -11.7687440177  MEMB      103             0.0000000000
     13681       109  POPS      C24           -14.6565538467       28.1353259287      -10.0799895897  MEMB      103             0.0000000000
     13682       109  POPS      H4R           -15.2866239754       28.8572205185       -9.5093941633  MEMB      103             0.0000000000
     13683       109  POPS      H4S           -13.6147059401       28.5117901591      -10.0845216164  MEMB      103             0.0000000000
     13684       109  POPS      C25           -14.7365611261       26.7843606059       -9.3559631725  MEMB      103             0.0000000000
     13685       109  POPS      H5R           -13.8915644447       26.1512523077       -9.6991494953  MEMB      103             0.0000000000
     13686       109  POPS      H5S           -15.6759220159       26.2591287131       -9.6459530237  MEMB      103             0.0000000000
     13687       109  POPS      C26           -14.7314458761       26.8980547929       -7.8230927239  MEMB      103             0.0000000000
     13688       109  POPS      H6R           -14.6109519374       25.8781640707       -7.3957291381  MEMB      103             0.0000000000
     13689       109  POPS      H6S           -15.7223662051       27.2818674588       -7.4918446641  MEMB      103             0.0000000000
     13690       109  POPS      C27           -13.6416429896       27.8090569593       -7.2373010994  MEMB      103             0.0000000000
     13691       109  POPS      H7R           -13.7498133669       27.7717949825       -6.1272455586  MEMB      103             0.0000000000
     13692       109  POPS      H7S           -13.8164225049       28.8617938370       -7.5497856182  MEMB      103             0.0000000000
     13693       109  POPS      C28           -12.2190277937       27.3748369014       -7.6261145073  MEMB      103             0.0000000000
     13694       109  POPS      H8R           -12.0345032497       27.5921007264       -8.6993839920  MEMB      103             0.0000000000
     13695       109  POPS      H8S           -12.1539268422       26.2676181809       -7.5187732095  MEMB      103             0.0000000000
     13696       109  POPS      C29           -11.2101348732       28.0841456458       -6.7628159162  MEMB      103             0.0000000000
     13697       109  POPS      H91           -11.0629674354       29.1554698720       -6.9720474042  MEMB      103             0.0000000000
     13698       109  POPS      C210          -10.5086517146       27.5057971883       -5.7775094500  MEMB      103             0.0000000000
     13699       109  POPS      H101           -9.7960332796       28.1070273331       -5.1987451192  MEMB      103             0.0000000000
     13700       109  POPS      C211          -10.6054706558       26.0623686618       -5.3683646036  MEMB      103             0.0000000000
     13701       109  POPS      H11R          -10.1780018104       25.4263335649       -6.1753706132  MEMB      103             0.0000000000
     13702       109  POPS      H11S          -11.6659062753       25.7566810815       -5.2319591077  MEMB      103             0.0000000000
     13703       109  POPS      C212           -9.8309405186       25.7639718597       -4.0732442973  MEMB      103             0.0000000000
     13704       109  POPS      H12R           -8.7967681344       26.1679668395       -4.1664219281  MEMB      103             0.0000000000
     13705       109  POPS      H12S           -9.7486030829       24.6625832953       -3.9403655405  MEMB      103             0.0000000000
     13706       109  POPS      C213          -10.4512010234       26.3722019940       -2.8183907726  MEMB      103             0.0000000000
     13707       109  POPS      H13R          -11.0538883619       27.2634102632       -3.0893660903  MEMB      103             0.0000000000
     13708       109  POPS      H13S           -9.6214104947       26.7142606836       -2.1562143080  MEMB      103             0.0000000000
     13709       109  POPS      C214          -11.3091523483       25.3928095275       -2.0131436490  MEMB      103             0.0000000000
     13710       109  POPS      H14R          -10.6968686857       24.4960282460       -1.7690434063  MEMB      103             0.0000000000
     13711       109  POPS      H14S          -12.1899906189       25.0613573057       -2.6055480618  MEMB      103             0.0000000000
     13712       109  POPS      C215          -11.7628859267       26.0582485738       -0.7138067529  MEMB      103             0.0000000000
     13713       109  POPS      H15R          -12.6093735827       26.7441223950       -0.9380937606  MEMB      103             0.0000000000
     13714       109  POPS      H15S          -10.9173439007       26.6793084154       -0.3425359813  MEMB      103             0.0000000000
     13715       109  POPS      C216          -12.1705559706       25.0794975238        0.3895989438  MEMB      103             0.0000000000
     13716       109  POPS      H16R          -11.3728436638       24.3219332874        0.5368403984  MEMB      103             0.0000000000
     13717       109  POPS      H16S          -13.0885456866       24.5438643286        0.0612089376  MEMB      103             0.0000000000
     13718       109  POPS      C217          -12.4313864513       25.7937873322        1.7230174856  MEMB      103             0.0000000000
     13719       109  POPS      H17R          -12.8790648346       25.0811419480        2.4457945571  MEMB      103             0.0000000000
     13720       109  POPS      H17S          -13.1908432627       26.5846125227        1.5404818623  MEMB      103             0.0000000000
     13721       109  POPS      C218          -11.1837789511       26.3987684669        2.3792297311  MEMB      103             0.0000000000
     13722       109  POPS      H18R          -11.4635016080       26.9282573597        3.3150618103  MEMB      103             0.0000000000
     13723       109  POPS      H18S          -10.6864764286       27.1301424560        1.7101545274  MEMB      103             0.0000000000
     13724       109  POPS      H18T          -10.4530507974       25.6005664229        2.6312396164  MEMB      103             0.0000000000
     13725       109  POPS      C33           -12.7886401773       22.7354523474      -12.2669262774  MEMB      103             0.0000000000
     13726       109  POPS      H3X           -12.5933874296       22.8231711501      -13.3630138375  MEMB      103             0.0000000000
     13727       109  POPS      H3Y           -12.2355049853       21.8343497232      -11.9132675355  MEMB      103             0.0000000000
     13728       109  POPS      C34           -12.2512446278       23.9762744149      -11.5629001133  MEMB      103             0.0000000000
     13729       109  POPS      H4X           -12.7778354864       24.8831418367      -11.9288851720  MEMB      103             0.0000000000
     13730       109  POPS      H4Y           -11.2067711218       24.0387935109      -11.9051528611  MEMB      103             0.0000000000
     13731       109  POPS      C35           -12.2776717986       23.9562419616      -10.0266574645  MEMB      103             0.0000000000
     13732       109  POPS      H5X           -13.3289664062       23.9305699842       -9.6642089495  MEMB      103             0.0000000000
     13733       109  POPS      H5Y           -11.8225614571       24.9043213176       -9.6595544743  MEMB      103             0.0000000000
     13734       109  POPS      C36           -11.4996276837       22.7827643844       -9.4234420770  MEMB      103             0.0000000000
     13735       109  POPS      H6X           -10.5177526990       22.7019000041       -9.9367157311  MEMB      103             0.0000000000
     13736       109  POPS      H6Y           -12.0594561101       21.8485669310       -9.6370973170  MEMB      103             0.0000000000
     13737       109  POPS      C37           -11.2543484664       22.9110893680       -7.9100666228  MEMB      103             0.0000000000
     13738       109  POPS      H7X           -10.6944635408       23.8489703370       -7.7050870360  MEMB      103             0.0000000000
     13739       109  POPS      H7Y           -10.6096499788       22.0646417381       -7.5834053297  MEMB      103             0.0000000000
     13740       109  POPS      C38           -12.5403240811       22.9137809887       -7.0709192596  MEMB      103             0.0000000000
     13741       109  POPS      H8X           -13.2081622318       22.0876995314       -7.4015132055  MEMB      103             0.0000000000
     13742       109  POPS      H8Y           -13.0702742141       23.8728264790       -7.2606848342  MEMB      103             0.0000000000
     13743       109  POPS      C39           -12.2637200843       22.7568798495       -5.5687663182  MEMB      103             0.0000000000
     13744       109  POPS      H9X           -11.5564523829       23.5478802230       -5.2436639370  MEMB      103             0.0000000000
     13745       109  POPS      H9Y           -11.7576935724       21.7794296554       -5.3990667287  MEMB      103             0.0000000000
     13746       109  POPS      C310          -13.5244669715       22.8193415575       -4.6915153665  MEMB      103             0.0000000000
     13747       109  POPS      H10X          -13.2233279946       22.6877987302       -3.6275296427  MEMB      103             0.0000000000
     13748       109  POPS      H10Y          -14.1891675576       21.9680312431       -4.9617019045  MEMB      103             0.0000000000
     13749       109  POPS      C311          -14.3204561318       24.1297642575       -4.8123654567  MEMB      103             0.0000000000
     13750       109  POPS      H11X          -14.6536932823       24.2633466958       -5.8637675813  MEMB      103             0.0000000000
     13751       109  POPS      H11Y          -13.6711474982       24.9935140872       -4.5501486848  MEMB      103             0.0000000000
     13752       109  POPS      C312          -15.5632784723       24.1403186092       -3.9132437928  MEMB      103             0.0000000000
     13753       109  POPS      H12X          -15.2565607359       24.0348433040       -2.8520694666  MEMB      103             0.0000000000
     13754       109  POPS      H12Y          -16.1687629670       23.2431123985       -4.1698763448  MEMB      103             0.0000000000
     13755       109  POPS      C313          -16.4440824920       25.3855435784       -4.0986685789  MEMB      103             0.0000000000
     13756       109  POPS      H13X          -17.5106259225       25.0919845062       -4.0014726228  MEMB      103             0.0000000000
     13757       109  POPS      H13Y          -16.3188079902       25.7719369056       -5.1347468284  MEMB      103             0.0000000000
     13758       109  POPS      C314          -16.1740976449       26.5179977310       -3.0941034983  MEMB      103             0.0000000000
     13759       109  POPS      H14X          -16.8664496344       27.3560063302       -3.3390455465  MEMB      103             0.0000000000
     13760       109  POPS      H14Y          -15.1353469694       26.8839136049       -3.2415803702  MEMB      103             0.0000000000
     13761       109  POPS      C315          -16.3706949303       26.1527867923       -1.6091580286  MEMB      103             0.0000000000
     13762       109  POPS      H15X          -16.3409386631       27.0938701051       -1.0123250571  MEMB      103             0.0000000000
     13763       109  POPS      H15Y          -15.5062878453       25.5376643957       -1.2714430698  MEMB      103             0.0000000000
     13764       109  POPS      C316          -17.6692452855       25.4036876917       -1.2859206815  MEMB      103             0.0000000000
     13765       109  POPS      H16X          -17.8087597755       25.3142228259       -0.1885258773  MEMB      103             0.0000000000
     13766       109  POPS      H16Y          -17.6487074835       24.3782888660       -1.7133131562  MEMB      103             0.0000000000
     13767       109  POPS      H16Z          -18.5444344975       25.9413566989       -1.7044054214  MEMB      103             0.0000000000
     13768       110  POPC      N              15.8242457524      -22.6305928961      -20.0678904549  MEMB      104             0.0000000000
     13769       110  POPC      C12            16.3974797038      -23.8421275277      -20.8081752979  MEMB      104             0.0000000000
     13770       110  POPC      H12A           17.3407319820      -23.5502066634      -21.2744881482  MEMB      104             0.0000000000
     13771       110  POPC      H12B           15.7455257838      -24.0950082146      -21.6392626471  MEMB      104             0.0000000000
     13772       110  POPC      C13            16.8860870272      -22.1753824122      -19.1235464251  MEMB      104             0.0000000000
     13773       110  POPC      H13A           17.7729039534      -21.8799812248      -19.6755179684  MEMB      104             0.0000000000
     13774       110  POPC      H13B           16.5425704016      -21.3812691936      -18.4888093643  MEMB      104             0.0000000000
     13775       110  POPC      H13C           17.2040935021      -23.0378516241      -18.5290453554  MEMB      104             0.0000000000
     13776       110  POPC      C14            15.4720497577      -21.5564196020      -21.0370302990  MEMB      104             0.0000000000
     13777       110  POPC      H14A           14.8997342764      -20.7653446079      -20.5599616162  MEMB      104             0.0000000000
     13778       110  POPC      H14B           16.3433915636      -21.1190679813      -21.5070042701  MEMB      104             0.0000000000
     13779       110  POPC      H14C           14.8418231622      -21.9461072323      -21.8350660429  MEMB      104             0.0000000000
     13780       110  POPC      C15            14.5717170597      -23.0009939931      -19.3267245766  MEMB      104             0.0000000000
     13781       110  POPC      H15A           13.8054236271      -23.3094584283      -20.0393048012  MEMB      104             0.0000000000
     13782       110  POPC      H15B           14.1498151894      -22.1805753172      -18.7564149907  MEMB      104             0.0000000000
     13783       110  POPC      H15C           14.7814024332      -23.8217842278      -18.6591840489  MEMB      104             0.0000000000
     13784       110  POPC      C11            16.7131022660      -25.1079958055      -19.9571496686  MEMB      104             0.0000000000
     13785       110  POPC      H11A           16.9491955568      -25.9373973539      -20.6715364685  MEMB      104             0.0000000000
     13786       110  POPC      H11B           15.8159447084      -25.4367412323      -19.3922572143  MEMB      104             0.0000000000
     13787       110  POPC      P              19.0387813836      -25.8236338520      -18.9839606382  MEMB      104             0.0000000000
     13788       110  POPC      O13            19.8067063984      -25.6309898494      -20.2279809266  MEMB      104             0.0000000000
     13789       110  POPC      O14            18.5495895721      -27.2058598060      -18.7026049637  MEMB      104             0.0000000000
     13790       110  POPC      O12            17.7726395787      -24.8584674612      -19.0221446707  MEMB      104             0.0000000000
     13791       110  POPC      O11            19.8776075897      -25.2992350100      -17.7423127471  MEMB      104             0.0000000000
     13792       110  POPC      C1             19.3481128778      -24.4146146248      -16.7555357950  MEMB      104             0.0000000000
     13793       110  POPC      HA             18.2350621524      -24.4704413865      -16.6906274033  MEMB      104             0.0000000000
     13794       110  POPC      HB             19.6271014480      -23.3675712213      -17.0083038936  MEMB      104             0.0000000000
     13795       110  POPC      C2             19.8852190840      -24.7356038462      -15.3299389950  MEMB      104             0.0000000000
     13796       110  POPC      HS             20.9590930726      -24.4424138345      -15.2752901400  MEMB      104             0.0000000000
     13797       110  POPC      O21            19.7032855512      -26.1319990154      -15.0480328955  MEMB      104             0.0000000000
     13798       110  POPC      C21            20.6681886620      -26.9510054743      -15.4044733039  MEMB      104             0.0000000000
     13799       110  POPC      O22            21.7376530877      -26.6679523998      -15.9149028195  MEMB      104             0.0000000000
     13800       110  POPC      C22            20.3291425948      -28.3846826190      -14.9617165047  MEMB      104             0.0000000000
     13801       110  POPC      H2R            21.3009617477      -28.8412360642      -14.6751824882  MEMB      104             0.0000000000
     13802       110  POPC      H2S            19.9290325545      -28.9252667802      -15.8406106574  MEMB      104             0.0000000000
     13803       110  POPC      C3             19.1064264946      -23.9018755072      -14.2624900926  MEMB      104             0.0000000000
     13804       110  POPC      HX             18.0364296279      -24.1939219207      -14.3552289777  MEMB      104             0.0000000000
     13805       110  POPC      HY             19.1738802736      -22.8179351608      -14.5165845487  MEMB      104             0.0000000000
     13806       110  POPC      O31            19.5126837481      -24.1792630980      -12.9046262787  MEMB      104             0.0000000000
     13807       110  POPC      C31            20.4642996665      -23.3995859438      -12.4133284777  MEMB      104             0.0000000000
     13808       110  POPC      O32            20.9866682995      -22.4650095588      -12.9881098602  MEMB      104             0.0000000000
     13809       110  POPC      C32            20.7503169130      -23.8271298471      -10.9780815530  MEMB      104             0.0000000000
     13810       110  POPC      H2X            21.0069049989      -24.9067320370      -10.9859171204  MEMB      104             0.0000000000
     13811       110  POPC      H2Y            19.8164636652      -23.6845085508      -10.3948924165  MEMB      104             0.0000000000
     13812       110  POPC      C23            19.3688595728      -28.4918034067      -13.7527658980  MEMB      104             0.0000000000
     13813       110  POPC      H3R            18.3472619967      -28.7534429957      -14.1061242282  MEMB      104             0.0000000000
     13814       110  POPC      H3S            19.3029733801      -27.5085374554      -13.2309250363  MEMB      104             0.0000000000
     13815       110  POPC      C24            19.8362472546      -29.5155740022      -12.7059868725  MEMB      104             0.0000000000
     13816       110  POPC      H4R            20.8480313193      -29.2198238248      -12.3454664901  MEMB      104             0.0000000000
     13817       110  POPC      H4S            19.9284881143      -30.5216465369      -13.1736814106  MEMB      104             0.0000000000
     13818       110  POPC      C25            18.8971073227      -29.6199140988      -11.4899727803  MEMB      104             0.0000000000
     13819       110  POPC      H5R            19.3696589990      -30.2888438095      -10.7363129006  MEMB      104             0.0000000000
     13820       110  POPC      H5S            17.9451092707      -30.1030280379      -11.8074944445  MEMB      104             0.0000000000
     13821       110  POPC      C26            18.5482664695      -28.2751114035      -10.8224264600  MEMB      104             0.0000000000
     13822       110  POPC      H6R            17.8737729774      -28.4700959164       -9.9593045547  MEMB      104             0.0000000000
     13823       110  POPC      H6S            17.9720961224      -27.6489436609      -11.5384031882  MEMB      104             0.0000000000
     13824       110  POPC      C27            19.7564381752      -27.4715371544      -10.3128836225  MEMB      104             0.0000000000
     13825       110  POPC      H7R            19.3708032119      -26.5062687039       -9.9089095998  MEMB      104             0.0000000000
     13826       110  POPC      H7S            20.4365778417      -27.2251285606      -11.1584908117  MEMB      104             0.0000000000
     13827       110  POPC      C28            20.5379025844      -28.2032561463       -9.2094436379  MEMB      104             0.0000000000
     13828       110  POPC      H8R            21.0153463733      -29.1080848774       -9.6437022285  MEMB      104             0.0000000000
     13829       110  POPC      H8S            19.8105289915      -28.5726278454       -8.4525327995  MEMB      104             0.0000000000
     13830       110  POPC      C29            21.5843584911      -27.3213838514       -8.5775080460  MEMB      104             0.0000000000
     13831       110  POPC      H91            22.5535701434      -27.2944211930       -9.0994751476  MEMB      104             0.0000000000
     13832       110  POPC      C210           21.4275317017      -26.5999315269       -7.4532032415  MEMB      104             0.0000000000
     13833       110  POPC      H101           22.2802584007      -26.0170667374       -7.0707235306  MEMB      104             0.0000000000
     13834       110  POPC      C211           20.1816512374      -26.5259912640       -6.6080414991  MEMB      104             0.0000000000
     13835       110  POPC      H11R           20.3005407446      -27.1210143943       -5.6754676903  MEMB      104             0.0000000000
     13836       110  POPC      H11S           19.3063841228      -26.9422006784       -7.1503431377  MEMB      104             0.0000000000
     13837       110  POPC      C212           19.8635997957      -25.0745565679       -6.2091299707  MEMB      104             0.0000000000
     13838       110  POPC      H12R           19.8514651131      -24.4299854854       -7.1160497561  MEMB      104             0.0000000000
     13839       110  POPC      H12S           20.6606004353      -24.6981383873       -5.5284530711  MEMB      104             0.0000000000
     13840       110  POPC      C213           18.5029797305      -24.9226774957       -5.5125856758  MEMB      104             0.0000000000
     13841       110  POPC      H13R           18.3725694785      -23.8566883219       -5.2260554594  MEMB      104             0.0000000000
     13842       110  POPC      H13S           18.5064219019      -25.5266089562       -4.5805887965  MEMB      104             0.0000000000
     13843       110  POPC      C214           17.3268323103      -25.3220973546       -6.4149177808  MEMB      104             0.0000000000
     13844       110  POPC      H14R           17.2633961755      -26.4289500695       -6.5007008361  MEMB      104             0.0000000000
     13845       110  POPC      H14S           17.5442930071      -24.9244833021       -7.4334762622  MEMB      104             0.0000000000
     13846       110  POPC      C215           15.9668094801      -24.7553157485       -5.9791581533  MEMB      104             0.0000000000
     13847       110  POPC      H15R           15.3254375593      -24.7190066992       -6.8927601279  MEMB      104             0.0000000000
     13848       110  POPC      H15S           16.0670541437      -23.7131362111       -5.6096863541  MEMB      104             0.0000000000
     13849       110  POPC      C216           15.2312277913      -25.6362266743       -4.9618984998  MEMB      104             0.0000000000
     13850       110  POPC      H16R           15.3538619012      -26.7046478708       -5.2497916204  MEMB      104             0.0000000000
     13851       110  POPC      H16S           14.1413582390      -25.4062553059       -5.0192371698  MEMB      104             0.0000000000
     13852       110  POPC      C217           15.6686948563      -25.4418657883       -3.5072710589  MEMB      104             0.0000000000
     13853       110  POPC      H17R           15.3677122726      -24.4224929265       -3.1717899177  MEMB      104             0.0000000000
     13854       110  POPC      H17S           16.7730520109      -25.5086411602       -3.4150234345  MEMB      104             0.0000000000
     13855       110  POPC      C218           15.0395486631      -26.4959700242       -2.6031749663  MEMB      104             0.0000000000
     13856       110  POPC      H18R           15.1106172430      -26.2162957233       -1.5339920094  MEMB      104             0.0000000000
     13857       110  POPC      H18S           15.5271918598      -27.4834360523       -2.7457971390  MEMB      104             0.0000000000
     13858       110  POPC      H18T           13.9692005112      -26.6086243760       -2.8624745630  MEMB      104             0.0000000000
     13859       110  POPC      C33            21.8983118160      -23.0220847151      -10.3329408577  MEMB      104             0.0000000000
     13860       110  POPC      H3X            21.7458760644      -21.9289225716      -10.4840356913  MEMB      104             0.0000000000
     13861       110  POPC      H3Y            22.8615362653      -23.2976062564      -10.8202097516  MEMB      104             0.0000000000
     13862       110  POPC      C34            21.9788916415      -23.2822640736       -8.8242466860  MEMB      104             0.0000000000
     13863       110  POPC      H4X            22.0981780187      -24.3719312846       -8.6648698908  MEMB      104             0.0000000000
     13864       110  POPC      H4Y            21.0217612005      -22.9662616976       -8.3539763810  MEMB      104             0.0000000000
     13865       110  POPC      C35            23.1441730771      -22.5511782718       -8.1546775259  MEMB      104             0.0000000000
     13866       110  POPC      H5X            23.0135348827      -21.4623321994       -8.3379794984  MEMB      104             0.0000000000
     13867       110  POPC      H5Y            24.0902996547      -22.8669937174       -8.6519241116  MEMB      104             0.0000000000
     13868       110  POPC      C36            23.2638226814      -22.8209791532       -6.6439417060  MEMB      104             0.0000000000
     13869       110  POPC      H6X            24.2596989838      -22.4543497039       -6.3015774371  MEMB      104             0.0000000000
     13870       110  POPC      H6Y            23.2303589451      -23.9164670561       -6.4561418549  MEMB      104             0.0000000000
     13871       110  POPC      C37            22.1858901218      -22.1196528789       -5.8010596715  MEMB      104             0.0000000000
     13872       110  POPC      H7X            21.1796034343      -22.4790851290       -6.1044935229  MEMB      104             0.0000000000
     13873       110  POPC      H7Y            22.2196312879      -21.0261286304       -6.0066705570  MEMB      104             0.0000000000
     13874       110  POPC      C38            22.3872739119      -22.3516929593       -4.2950992638  MEMB      104             0.0000000000
     13875       110  POPC      H8X            23.4085606541      -21.9981642850       -4.0265885873  MEMB      104             0.0000000000
     13876       110  POPC      H8Y            22.3417884222      -23.4404935173       -4.0716587198  MEMB      104             0.0000000000
     13877       110  POPC      C39            21.3756871888      -21.6044545791       -3.4106021882  MEMB      104             0.0000000000
     13878       110  POPC      H9X            21.2897206565      -20.5513395383       -3.7613846924  MEMB      104             0.0000000000
     13879       110  POPC      H9Y            21.7822681922      -21.5828223559       -2.3747924569  MEMB      104             0.0000000000
     13880       110  POPC      C310           19.9838377026      -22.2549316843       -3.3888549916  MEMB      104             0.0000000000
     13881       110  POPC      H10X           20.0564589250      -23.2942446149       -2.9962578195  MEMB      104             0.0000000000
     13882       110  POPC      H10Y           19.6185533600      -22.3102331004       -4.4387936513  MEMB      104             0.0000000000
     13883       110  POPC      C311           18.9409749379      -21.4728851915       -2.5731584679  MEMB      104             0.0000000000
     13884       110  POPC      H11X           17.9431013403      -21.9498726057       -2.6993339088  MEMB      104             0.0000000000
     13885       110  POPC      H11Y           18.8700785511      -20.4455363225       -2.9999510264  MEMB      104             0.0000000000
     13886       110  POPC      C312           19.2563551549      -21.3605213064       -1.0732148479  MEMB      104             0.0000000000
     13887       110  POPC      H12X           19.1742203249      -20.2862029656       -0.7934733581  MEMB      104             0.0000000000
     13888       110  POPC      H12Y           20.3003848098      -21.6704692318       -0.8586216474  MEMB      104             0.0000000000
     13889       110  POPC      C313           18.2986211136      -22.1512958212       -0.1685853134  MEMB      104             0.0000000000
     13890       110  POPC      H13X           17.2547563341      -22.0825323862       -0.5303289260  MEMB      104             0.0000000000
     13891       110  POPC      H13Y           18.3357784261      -21.6981477095        0.8453297519  MEMB      104             0.0000000000
     13892       110  POPC      C314           18.6778778077      -23.6228002158       -0.0279388968  MEMB      104             0.0000000000
     13893       110  POPC      H14X           19.7503590451      -23.6654642599        0.2692781800  MEMB      104             0.0000000000
     13894       110  POPC      H14Y           18.5632292320      -24.1288710762       -1.0114882289  MEMB      104             0.0000000000
     13895       110  POPC      C315           17.8541343196      -24.3608258390        1.0326044057  MEMB      104             0.0000000000
     13896       110  POPC      H15X           17.7319683447      -23.7065126697        1.9238753861  MEMB      104             0.0000000000
     13897       110  POPC      H15Y           18.4293046139      -25.2561409624        1.3612941283  MEMB      104             0.0000000000
     13898       110  POPC      C316           16.4920538373      -24.8327094918        0.5274342406  MEMB      104             0.0000000000
     13899       110  POPC      H16X           16.6352551097      -25.6316697197       -0.2292022764  MEMB      104             0.0000000000
     13900       110  POPC      H16Y           15.9277911769      -23.9994786254        0.0574989542  MEMB      104             0.0000000000
     13901       110  POPC      H16Z           15.8840343541      -25.2414789527        1.3615673008  MEMB      104             0.0000000000
     13902       111  POPS      N              20.6353167602       17.6199352848      -18.3215396936  MEMB      105             0.0000000000
     13903       111  POPS      HN1            20.8957972553       16.6119714583      -18.3750700799  MEMB      105             0.0000000000
     13904       111  POPS      HN2            20.9603906305       18.0221036005      -17.4250352001  MEMB      105             0.0000000000
     13905       111  POPS      HN3            19.6003725212       17.7754468198      -18.4147538975  MEMB      105             0.0000000000
     13906       111  POPS      C12            21.4018839181       18.3091360251      -19.4211283294  MEMB      105             0.0000000000
     13907       111  POPS      H12A           20.7155057325       18.5398933215      -20.2221909161  MEMB      105             0.0000000000
     13908       111  POPS      C13            22.5646044985       17.4479051593      -19.9978665586  MEMB      105             0.0000000000
     13909       111  POPS      O13A           22.9600613161       16.4484501795      -19.3424610497  MEMB      105             0.0000000000
     13910       111  POPS      O13B           23.0351067993       17.7188129569      -21.1342358167  MEMB      105             0.0000000000
     13911       111  POPS      C11            21.9263739581       19.6314224660      -18.7991598849  MEMB      105             0.0000000000
     13912       111  POPS      H11A           22.7192872281       19.4238940240      -18.0488983458  MEMB      105             0.0000000000
     13913       111  POPS      H11B           21.0501386519       20.0712892675      -18.2550896429  MEMB      105             0.0000000000
     13914       111  POPS      P              22.3474387188       22.0914132001      -19.4463825071  MEMB      105             0.0000000000
     13915       111  POPS      O13            21.8370586814       22.2536381294      -18.0697474926  MEMB      105             0.0000000000
     13916       111  POPS      O14            21.5433896725       22.7316870251      -20.5244623895  MEMB      105             0.0000000000
     13917       111  POPS      O12            22.4353538611       20.5379341611      -19.7846256961  MEMB      105             0.0000000000
     13918       111  POPS      O11            23.8434745498       22.5848999154      -19.5141764024  MEMB      105             0.0000000000
     13919       111  POPS      C1             24.8671012387       21.7858382675      -20.1094634274  MEMB      105             0.0000000000
     13920       111  POPS      HA             25.4780227648       22.4685511574      -20.7395723560  MEMB      105             0.0000000000
     13921       111  POPS      HB             24.4941691041       20.9819293070      -20.7907153598  MEMB      105             0.0000000000
     13922       111  POPS      C2             25.8337017540       21.1576962321      -19.0659086314  MEMB      105             0.0000000000
     13923       111  POPS      HS             26.8266460882       21.0808133188      -19.5631082667  MEMB      105             0.0000000000
     13924       111  POPS      O21            25.3757317044       19.8318456444      -18.7281019722  MEMB      105             0.0000000000
     13925       111  POPS      C21            26.1490261925       19.2440994409      -17.8296334844  MEMB      105             0.0000000000
     13926       111  POPS      O22            27.2275732516       19.6884324856      -17.4685708692  MEMB      105             0.0000000000
     13927       111  POPS      C22            25.3734836064       18.0760279257      -17.1863220893  MEMB      105             0.0000000000
     13928       111  POPS      H2R            25.2577152387       17.2613282185      -17.9293743789  MEMB      105             0.0000000000
     13929       111  POPS      H2S            24.3727778336       18.4702079801      -16.9172806072  MEMB      105             0.0000000000
     13930       111  POPS      C3             25.9711155647       22.0783799767      -17.7861036099  MEMB      105             0.0000000000
     13931       111  POPS      HX             25.7818852075       23.1162583382      -18.1029155150  MEMB      105             0.0000000000
     13932       111  POPS      HY             27.0516630966       22.0256080584      -17.5197850876  MEMB      105             0.0000000000
     13933       111  POPS      O31            25.1120956414       21.7458367355      -16.6559892118  MEMB      105             0.0000000000
     13934       111  POPS      C31            25.6114747656       22.1337718743      -15.4806111159  MEMB      105             0.0000000000
     13935       111  POPS      O32            26.7224576369       22.6097313967      -15.3104720783  MEMB      105             0.0000000000
     13936       111  POPS      C32            24.5870144399       22.0037944427      -14.3691241937  MEMB      105             0.0000000000
     13937       111  POPS      H2X            24.1649195633       20.9804861900      -14.3794590966  MEMB      105             0.0000000000
     13938       111  POPS      H2Y            23.7777893741       22.7350143013      -14.5707297834  MEMB      105             0.0000000000
     13939       111  POPS      C23            26.0718541591       17.5640006577      -15.9103054482  MEMB      105             0.0000000000
     13940       111  POPS      H3R            26.4439089787       18.4391502739      -15.3364968963  MEMB      105             0.0000000000
     13941       111  POPS      H3S            26.9497329326       16.9489267618      -16.2159531019  MEMB      105             0.0000000000
     13942       111  POPS      C24            25.2153726438       16.7476751020      -14.9337594173  MEMB      105             0.0000000000
     13943       111  POPS      H4R            25.8735256245       15.9630009773      -14.4890195385  MEMB      105             0.0000000000
     13944       111  POPS      H4S            24.4002818733       16.2358342608      -15.4790132151  MEMB      105             0.0000000000
     13945       111  POPS      C25            24.6739471483       17.6003082804      -13.7746465030  MEMB      105             0.0000000000
     13946       111  POPS      H5R            23.7147459251       18.0701989519      -14.0791494577  MEMB      105             0.0000000000
     13947       111  POPS      H5S            25.3922922796       18.4261705260      -13.5684066429  MEMB      105             0.0000000000
     13948       111  POPS      C26            24.5030146635       16.8313259824      -12.4561430555  MEMB      105             0.0000000000
     13949       111  POPS      H6R            25.5060447124       16.5402413322      -12.0712455551  MEMB      105             0.0000000000
     13950       111  POPS      H6S            23.9345171051       15.8916193415      -12.6415013599  MEMB      105             0.0000000000
     13951       111  POPS      C27            23.7551287784       17.6425507091      -11.3810844673  MEMB      105             0.0000000000
     13952       111  POPS      H7R            23.7108468300       17.0517577895      -10.4390006197  MEMB      105             0.0000000000
     13953       111  POPS      H7S            22.7073022150       17.7840246406      -11.7315875465  MEMB      105             0.0000000000
     13954       111  POPS      C28            24.3286868914       19.0468068753      -11.0879070317  MEMB      105             0.0000000000
     13955       111  POPS      H8R            23.5595816915       19.5840863707      -10.4853564870  MEMB      105             0.0000000000
     13956       111  POPS      H8S            24.4124363872       19.6237938963      -12.0329369318  MEMB      105             0.0000000000
     13957       111  POPS      C29            25.6533736593       19.0516217752      -10.3619091308  MEMB      105             0.0000000000
     13958       111  POPS      H91            26.5555005513       19.0351569487      -10.9939293594  MEMB      105             0.0000000000
     13959       111  POPS      C210           25.7819809126       19.0447926184       -9.0220298309  MEMB      105             0.0000000000
     13960       111  POPS      H101           26.7834425654       19.0775981948       -8.5642320868  MEMB      105             0.0000000000
     13961       111  POPS      C211           24.6187450123       19.0262376991       -8.0671587201  MEMB      105             0.0000000000
     13962       111  POPS      H11R           24.0621756109       18.0682061564       -8.1755221950  MEMB      105             0.0000000000
     13963       111  POPS      H11S           23.9070430779       19.8483517624       -8.3099171853  MEMB      105             0.0000000000
     13964       111  POPS      C212           25.0102243193       19.1725556537       -6.5884144589  MEMB      105             0.0000000000
     13965       111  POPS      H12R           25.5132314913       20.1546708272       -6.4442825128  MEMB      105             0.0000000000
     13966       111  POPS      H12S           25.7169367862       18.3717826927       -6.2801049190  MEMB      105             0.0000000000
     13967       111  POPS      C213           23.7633994483       19.1253899985       -5.6986340708  MEMB      105             0.0000000000
     13968       111  POPS      H13R           23.3091890057       18.1132202125       -5.7104403286  MEMB      105             0.0000000000
     13969       111  POPS      H13S           23.0197162698       19.8305209641       -6.1405867147  MEMB      105             0.0000000000
     13970       111  POPS      C214           24.0120839558       19.5760463303       -4.2591038345  MEMB      105             0.0000000000
     13971       111  POPS      H14R           23.0269076594       19.8744440373       -3.8324864100  MEMB      105             0.0000000000
     13972       111  POPS      H14S           24.6637469748       20.4766173851       -4.2616174094  MEMB      105             0.0000000000
     13973       111  POPS      C215           24.6091156242       18.5278307880       -3.3154868796  MEMB      105             0.0000000000
     13974       111  POPS      H15R           25.6432404491       18.2701115882       -3.6316024575  MEMB      105             0.0000000000
     13975       111  POPS      H15S           23.9903855190       17.6042196722       -3.3594889735  MEMB      105             0.0000000000
     13976       111  POPS      C216           24.6160394900       19.0877129844       -1.8866721431  MEMB      105             0.0000000000
     13977       111  POPS      H16R           23.5772710492       19.4031558851       -1.6339620904  MEMB      105             0.0000000000
     13978       111  POPS      H16S           25.2510003466       20.0027734239       -1.8624767536  MEMB      105             0.0000000000
     13979       111  POPS      C217           25.0855459038       18.1221555935       -0.7971194903  MEMB      105             0.0000000000
     13980       111  POPS      H17R           25.0722974988       18.6837144829        0.1670681902  MEMB      105             0.0000000000
     13981       111  POPS      H17S           26.1347138919       17.8096321183       -0.9985181526  MEMB      105             0.0000000000
     13982       111  POPS      C218           24.2030765911       16.8905836760       -0.6350871783  MEMB      105             0.0000000000
     13983       111  POPS      H18R           23.1293006781       17.1732162812       -0.6719714968  MEMB      105             0.0000000000
     13984       111  POPS      H18S           24.3951780919       16.3988996826        0.3397681137  MEMB      105             0.0000000000
     13985       111  POPS      H18T           24.4125260556       16.1599815318       -1.4436272158  MEMB      105             0.0000000000
     13986       111  POPS      C33            25.2720555403       22.3118290983      -13.0155668556  MEMB      105             0.0000000000
     13987       111  POPS      H3X            25.9123072687       23.2192549212      -13.1021887133  MEMB      105             0.0000000000
     13988       111  POPS      H3Y            25.9452397643       21.4660576764      -12.7440089768  MEMB      105             0.0000000000
     13989       111  POPS      C34            24.3127889825       22.5846824701      -11.8548050165  MEMB      105             0.0000000000
     13990       111  POPS      H4X            23.5856660495       21.7501135531      -11.7641782631  MEMB      105             0.0000000000
     13991       111  POPS      H4Y            23.7387913295       23.5158169394      -12.0594190393  MEMB      105             0.0000000000
     13992       111  POPS      C35            25.0840806144       22.7400812241      -10.5356741249  MEMB      105             0.0000000000
     13993       111  POPS      H5X            25.7781616109       23.5992957169      -10.6190665900  MEMB      105             0.0000000000
     13994       111  POPS      H5Y            25.7116876825       21.8384638144      -10.3652446923  MEMB      105             0.0000000000
     13995       111  POPS      C36            24.1604057230       22.9294593340       -9.3299021252  MEMB      105             0.0000000000
     13996       111  POPS      H6X            23.4663041936       22.0591847120       -9.2835256506  MEMB      105             0.0000000000
     13997       111  POPS      H6Y            23.5418147022       23.8403980552       -9.4825810966  MEMB      105             0.0000000000
     13998       111  POPS      C37            24.8924774510       23.0460831885       -7.9815252057  MEMB      105             0.0000000000
     13999       111  POPS      H7X            25.5385842735       23.9479836735       -7.9728392915  MEMB      105             0.0000000000
     14000       111  POPS      H7Y            25.5328417894       22.1489365147       -7.8364268420  MEMB      105             0.0000000000
     14001       111  POPS      C38            23.8687393926       23.1239896047       -6.8464983788  MEMB      105             0.0000000000
     14002       111  POPS      H8X            23.2704226532       22.1858968968       -6.9160547135  MEMB      105             0.0000000000
     14003       111  POPS      H8Y            23.1900138831       23.9849411380       -7.0392678641  MEMB      105             0.0000000000
     14004       111  POPS      C39            24.4051303431       23.2251433098       -5.4102093291  MEMB      105             0.0000000000
     14005       111  POPS      H9X            24.8663359523       24.2217295750       -5.2411292328  MEMB      105             0.0000000000
     14006       111  POPS      H9Y            25.1827520509       22.4490177022       -5.2659439837  MEMB      105             0.0000000000
     14007       111  POPS      C310           23.2703580392       22.9726754862       -4.4024523562  MEMB      105             0.0000000000
     14008       111  POPS      H10X           22.7904477330       22.0103408331       -4.6896937104  MEMB      105             0.0000000000
     14009       111  POPS      H10Y           22.4940945676       23.7554410686       -4.5122066482  MEMB      105             0.0000000000
     14010       111  POPS      C311           23.6473740523       22.8579647772       -2.9180028661  MEMB      105             0.0000000000
     14011       111  POPS      H11X           24.0047756853       23.8330081170       -2.5254299500  MEMB      105             0.0000000000
     14012       111  POPS      H11Y           24.4755098244       22.1265214071       -2.7991204300  MEMB      105             0.0000000000
     14013       111  POPS      C312           22.4274414340       22.3682466394       -2.1143686477  MEMB      105             0.0000000000
     14014       111  POPS      H12X           22.0322767642       21.4612191310       -2.6274836904  MEMB      105             0.0000000000
     14015       111  POPS      H12Y           21.6163532195       23.1272522622       -2.1391938154  MEMB      105             0.0000000000
     14016       111  POPS      C313           22.7263134321       21.9755681396       -0.6623729530  MEMB      105             0.0000000000
     14017       111  POPS      H13X           23.7134804041       21.4670500057       -0.6048286418  MEMB      105             0.0000000000
     14018       111  POPS      H13Y           21.9488092852       21.2434389259       -0.3437705022  MEMB      105             0.0000000000
     14019       111  POPS      C314           22.6978374607       23.1535200694        0.3170131817  MEMB      105             0.0000000000
     14020       111  POPS      H14X           21.6782501839       23.5974691502        0.3246614034  MEMB      105             0.0000000000
     14021       111  POPS      H14Y           23.4028532491       23.9393082654       -0.0366050429  MEMB      105             0.0000000000
     14022       111  POPS      C315           23.0823433773       22.7468902543        1.7482697962  MEMB      105             0.0000000000
     14023       111  POPS      H15X           23.0634087642       23.6627599986        2.3763311090  MEMB      105             0.0000000000
     14024       111  POPS      H15Y           24.1295212640       22.3670182999        1.7399848447  MEMB      105             0.0000000000
     14025       111  POPS      C316           22.1805274769       21.6940369752        2.3989704203  MEMB      105             0.0000000000
     14026       111  POPS      H16X           22.2161325695       20.7381364472        1.8367969856  MEMB      105             0.0000000000
     14027       111  POPS      H16Y           21.1308431513       22.0467520989        2.4325694791  MEMB      105             0.0000000000
     14028       111  POPS      H16Z           22.5077332557       21.4975561559        3.4425755278  MEMB      105             0.0000000000
     14029       112  POPC      N               9.9552640434       29.7786502439      -17.4440222405  MEMB      106             0.0000000000
     14030       112  POPC      C12             9.9297986907       30.8836431870      -18.5076260337  MEMB      106             0.0000000000
     14031       112  POPC      H12A           10.9328904466       31.0664224417      -18.8796792685  MEMB      106             0.0000000000
     14032       112  POPC      H12B            9.6128186253       31.8115289504      -18.0518466163  MEMB      106             0.0000000000
     14033       112  POPC      C13             8.5706990166       29.4130452249      -17.0136324723  MEMB      106             0.0000000000
     14034       112  POPC      H13A            8.5958623494       28.5661217897      -16.3359459113  MEMB      106             0.0000000000
     14035       112  POPC      H13B            8.0741335991       30.2297622332      -16.5082504638  MEMB      106             0.0000000000
     14036       112  POPC      H13C            7.9633797976       29.1322249204      -17.8804341294  MEMB      106             0.0000000000
     14037       112  POPC      C14            10.5153424711       28.5516044462      -18.0731499672  MEMB      106             0.0000000000
     14038       112  POPC      H14A            9.9579647927       28.3727785720      -19.0030626905  MEMB      106             0.0000000000
     14039       112  POPC      H14B           11.5387530695       28.6682754729      -18.3688056343  MEMB      106             0.0000000000
     14040       112  POPC      H14C           10.3875283880       27.6859519830      -17.4429387051  MEMB      106             0.0000000000
     14041       112  POPC      C15            10.6965876252       30.1811189121      -16.2046030837  MEMB      106             0.0000000000
     14042       112  POPC      H15A           11.7315750961       30.4660478252      -16.3792775772  MEMB      106             0.0000000000
     14043       112  POPC      H15B           10.7283710054       29.3758665691      -15.4815647605  MEMB      106             0.0000000000
     14044       112  POPC      H15C           10.2230721380       31.0183987199      -15.7092492258  MEMB      106             0.0000000000
     14045       112  POPC      C11             9.0298650547       30.6912944649      -19.7686303494  MEMB      106             0.0000000000
     14046       112  POPC      H11A            9.0665397308       31.6294520504      -20.3697448195  MEMB      106             0.0000000000
     14047       112  POPC      H11B            7.9864290104       30.5792773832      -19.4187761665  MEMB      106             0.0000000000
     14048       112  POPC      P               8.3594317785       29.0455259071      -21.6615597772  MEMB      106             0.0000000000
     14049       112  POPC      O13             8.9050058869       27.8379671344      -22.3177448767  MEMB      106             0.0000000000
     14050       112  POPC      O14             7.9413180523       30.1320165025      -22.5837504890  MEMB      106             0.0000000000
     14051       112  POPC      O12             9.4185456981       29.5880125280      -20.5899914190  MEMB      106             0.0000000000
     14052       112  POPC      O11             7.1915580157       28.6193331705      -20.6703221149  MEMB      106             0.0000000000
     14053       112  POPC      C1              5.8876132785       29.1973710705      -20.6608455761  MEMB      106             0.0000000000
     14054       112  POPC      HA              5.2367754125       28.6041793190      -21.3372475575  MEMB      106             0.0000000000
     14055       112  POPC      HB              5.8994432884       30.2402220749      -21.0581765765  MEMB      106             0.0000000000
     14056       112  POPC      C2              5.1872807852       29.2410984568      -19.2472352614  MEMB      106             0.0000000000
     14057       112  POPC      HS              4.1640591278       29.6614520650      -19.4170435512  MEMB      106             0.0000000000
     14058       112  POPC      O21             5.9435552809       30.0341505584      -18.3010273000  MEMB      106             0.0000000000
     14059       112  POPC      C21             5.6885759858       31.3375706009      -18.3901922187  MEMB      106             0.0000000000
     14060       112  POPC      O22             4.8174690587       31.8213763984      -19.0966349115  MEMB      106             0.0000000000
     14061       112  POPC      C22             6.5495921703       32.1035239776      -17.4024299797  MEMB      106             0.0000000000
     14062       112  POPC      H2R             6.3239139866       33.1788492808      -17.5249683339  MEMB      106             0.0000000000
     14063       112  POPC      H2S             7.6156110472       31.9605778332      -17.6463051831  MEMB      106             0.0000000000
     14064       112  POPC      C3              4.9150466884       27.8458492491      -18.5900334083  MEMB      106             0.0000000000
     14065       112  POPC      HX              4.5264750914       27.1855233867      -19.3946464118  MEMB      106             0.0000000000
     14066       112  POPC      HY              4.0911778630       28.0011205071      -17.8545674795  MEMB      106             0.0000000000
     14067       112  POPC      O31             6.0670740592       27.2318828703      -17.9861665611  MEMB      106             0.0000000000
     14068       112  POPC      C31             5.9967597774       26.7793257571      -16.7322070044  MEMB      106             0.0000000000
     14069       112  POPC      O32             5.0116279493       26.8360876414      -16.0117131336  MEMB      106             0.0000000000
     14070       112  POPC      C32             7.3323457334       26.1213613154      -16.3566084549  MEMB      106             0.0000000000
     14071       112  POPC      H2X             8.0919909821       26.4484073637      -17.0982079893  MEMB      106             0.0000000000
     14072       112  POPC      H2Y             7.2215219572       25.0244816671      -16.4838858419  MEMB      106             0.0000000000
     14073       112  POPC      C23             6.2326196125       31.6708671269      -15.9576999961  MEMB      106             0.0000000000
     14074       112  POPC      H3R             6.3724453866       30.5770442237      -15.8258866905  MEMB      106             0.0000000000
     14075       112  POPC      H3S             5.1573697763       31.8798229808      -15.7473232227  MEMB      106             0.0000000000
     14076       112  POPC      C24             7.0670880948       32.4328659859      -14.9311451585  MEMB      106             0.0000000000
     14077       112  POPC      H4R             6.9354496700       33.5138853397      -15.1537773061  MEMB      106             0.0000000000
     14078       112  POPC      H4S             8.1478849235       32.1918888742      -15.0216339993  MEMB      106             0.0000000000
     14079       112  POPC      C25             6.5854585991       32.1895659518      -13.5016119863  MEMB      106             0.0000000000
     14080       112  POPC      H5R             5.4810998142       32.3332183737      -13.4595409385  MEMB      106             0.0000000000
     14081       112  POPC      H5S             7.0500583975       32.9421445492      -12.8231171393  MEMB      106             0.0000000000
     14082       112  POPC      C26             6.9004689578       30.7977079713      -12.9602113877  MEMB      106             0.0000000000
     14083       112  POPC      H6R             8.0037128013       30.6554650285      -12.9174317868  MEMB      106             0.0000000000
     14084       112  POPC      H6S             6.4721680112       30.0089378920      -13.6169956270  MEMB      106             0.0000000000
     14085       112  POPC      C27             6.3121776731       30.6446019343      -11.5568427702  MEMB      106             0.0000000000
     14086       112  POPC      H7R             5.1998249020       30.6417296483      -11.6106191856  MEMB      106             0.0000000000
     14087       112  POPC      H7S             6.6132040450       31.5319855943      -10.9495574888  MEMB      106             0.0000000000
     14088       112  POPC      C28             6.8107041256       29.3897459808      -10.8344021393  MEMB      106             0.0000000000
     14089       112  POPC      H8R             6.5008361441       29.4917080674       -9.7708169496  MEMB      106             0.0000000000
     14090       112  POPC      H8S             7.9204082670       29.4126788753      -10.8296286694  MEMB      106             0.0000000000
     14091       112  POPC      C29             6.3130518403       28.1007008094      -11.4440594400  MEMB      106             0.0000000000
     14092       112  POPC      H91             6.8729709719       27.7389619232      -12.3194790223  MEMB      106             0.0000000000
     14093       112  POPC      C210            5.2732483400       27.3816490646      -10.9876272202  MEMB      106             0.0000000000
     14094       112  POPC      H101            5.0082910611       26.4343868068      -11.4831671860  MEMB      106             0.0000000000
     14095       112  POPC      C211            4.4377343263       27.7561798093       -9.7917977169  MEMB      106             0.0000000000
     14096       112  POPC      H11R            3.4726834010       27.2037388205       -9.8145620621  MEMB      106             0.0000000000
     14097       112  POPC      H11S            4.1923289105       28.8431226400       -9.8155516826  MEMB      106             0.0000000000
     14098       112  POPC      C212            5.1415995298       27.4472524183       -8.4607875625  MEMB      106             0.0000000000
     14099       112  POPC      H12R            6.1508644963       27.9145971213       -8.4364734176  MEMB      106             0.0000000000
     14100       112  POPC      H12S            5.2974890857       26.3507895216       -8.3719178708  MEMB      106             0.0000000000
     14101       112  POPC      C213            4.3610920388       27.9491580132       -7.2371229621  MEMB      106             0.0000000000
     14102       112  POPC      H13R            3.4365600033       27.3371238261       -7.1397449065  MEMB      106             0.0000000000
     14103       112  POPC      H13S            4.0593078405       29.0099546746       -7.3808137637  MEMB      106             0.0000000000
     14104       112  POPC      C214            5.2114607638       27.8324008055       -5.9670442742  MEMB      106             0.0000000000
     14105       112  POPC      H14R            6.0083146831       28.6084590756       -5.9623776310  MEMB      106             0.0000000000
     14106       112  POPC      H14S            5.7316809989       26.8517710449       -6.0186698221  MEMB      106             0.0000000000
     14107       112  POPC      C215            4.4159308606       27.8759020318       -4.6575365502  MEMB      106             0.0000000000
     14108       112  POPC      H15R            3.3970170246       27.4568148073       -4.8230087247  MEMB      106             0.0000000000
     14109       112  POPC      H15S            4.2991926055       28.9302648917       -4.3234891913  MEMB      106             0.0000000000
     14110       112  POPC      C216            5.1116459090       27.0426865189       -3.5704850566  MEMB      106             0.0000000000
     14111       112  POPC      H16R            6.1691617770       27.3718790809       -3.4593082100  MEMB      106             0.0000000000
     14112       112  POPC      H16S            5.1296105485       25.9823447090       -3.9125665138  MEMB      106             0.0000000000
     14113       112  POPC      C217            4.4167083517       27.0935672436       -2.2063463381  MEMB      106             0.0000000000
     14114       112  POPC      H17R            4.6557130279       26.1509741307       -1.6617397713  MEMB      106             0.0000000000
     14115       112  POPC      H17S            3.3148133063       27.1178957900       -2.3578296101  MEMB      106             0.0000000000
     14116       112  POPC      C218            4.8665674456       28.2687352847       -1.3374414695  MEMB      106             0.0000000000
     14117       112  POPC      H18R            4.6114229580       29.2363412561       -1.8212153841  MEMB      106             0.0000000000
     14118       112  POPC      H18S            5.9663234578       28.2332377069       -1.1817736925  MEMB      106             0.0000000000
     14119       112  POPC      H18T            4.3811726050       28.2345273366       -0.3392176377  MEMB      106             0.0000000000
     14120       112  POPC      C33             7.8265981365       26.4552261552      -14.9219898512  MEMB      106             0.0000000000
     14121       112  POPC      H3X             7.3281662222       25.7911168062      -14.1823834656  MEMB      106             0.0000000000
     14122       112  POPC      H3Y             7.5564314766       27.5012692097      -14.6575100160  MEMB      106             0.0000000000
     14123       112  POPC      C34             9.3530183133       26.3256969252      -14.7978625351  MEMB      106             0.0000000000
     14124       112  POPC      H4X             9.8145620191       26.9057919619      -15.6269748033  MEMB      106             0.0000000000
     14125       112  POPC      H4Y             9.6446347777       25.2602185387      -14.9324908695  MEMB      106             0.0000000000
     14126       112  POPC      C35             9.9398637264       26.8481630996      -13.4763795945  MEMB      106             0.0000000000
     14127       112  POPC      H5X             9.4742917659       27.8226119313      -13.2188474491  MEMB      106             0.0000000000
     14128       112  POPC      H5Y            11.0357517557       27.0196225171      -13.6123024077  MEMB      106             0.0000000000
     14129       112  POPC      C36             9.7837664116       25.8556016319      -12.3161846976  MEMB      106             0.0000000000
     14130       112  POPC      H6X            10.2568623788       24.9039724175      -12.6334313361  MEMB      106             0.0000000000
     14131       112  POPC      H6Y             8.7074421375       25.6624747091      -12.1160751468  MEMB      106             0.0000000000
     14132       112  POPC      C37            10.4752997839       26.2949763979      -11.0148270374  MEMB      106             0.0000000000
     14133       112  POPC      H7X            11.5489465539       26.5137754845      -11.2154773643  MEMB      106             0.0000000000
     14134       112  POPC      H7Y            10.4241709196       25.4553238800      -10.2838621414  MEMB      106             0.0000000000
     14135       112  POPC      C38             9.8085202915       27.5191294762      -10.3954857194  MEMB      106             0.0000000000
     14136       112  POPC      H8X             8.7215185646       27.3045810416      -10.2771963685  MEMB      106             0.0000000000
     14137       112  POPC      H8Y             9.9243486246       28.3835346178      -11.0885520691  MEMB      106             0.0000000000
     14138       112  POPC      C39            10.3636225142       27.9197423549       -9.0269683968  MEMB      106             0.0000000000
     14139       112  POPC      H9X            11.4670129080       28.0580541898       -9.0920520492  MEMB      106             0.0000000000
     14140       112  POPC      H9Y            10.1627365125       27.1088808389       -8.2920759554  MEMB      106             0.0000000000
     14141       112  POPC      C310            9.7172527020       29.2287519080       -8.5546124339  MEMB      106             0.0000000000
     14142       112  POPC      H10X            8.6115537739       29.1141934915       -8.5152600764  MEMB      106             0.0000000000
     14143       112  POPC      H10Y            9.9478232468       30.0147903229       -9.3108341166  MEMB      106             0.0000000000
     14144       112  POPC      C311           10.2274257260       29.6954736690       -7.1929364837  MEMB      106             0.0000000000
     14145       112  POPC      H11X           10.0212031836       30.7840088026       -7.0784562733  MEMB      106             0.0000000000
     14146       112  POPC      H11Y           11.3306462887       29.5506197950       -7.1638560820  MEMB      106             0.0000000000
     14147       112  POPC      C312            9.5878590934       28.9603462313       -6.0128751144  MEMB      106             0.0000000000
     14148       112  POPC      H12X            9.7645364511       27.8665068971       -6.1244283280  MEMB      106             0.0000000000
     14149       112  POPC      H12Y            8.4880831873       29.1284025006       -6.0060970026  MEMB      106             0.0000000000
     14150       112  POPC      C313           10.1930502026       29.4301687951       -4.6869316482  MEMB      106             0.0000000000
     14151       112  POPC      H13X            9.9646740798       30.5068574497       -4.5263508197  MEMB      106             0.0000000000
     14152       112  POPC      H13Y           11.2981546543       29.3283085142       -4.7822658941  MEMB      106             0.0000000000
     14153       112  POPC      C314            9.6959460179       28.6085855647       -3.4936438232  MEMB      106             0.0000000000
     14154       112  POPC      H14X            9.8867292547       27.5346342781       -3.7162346082  MEMB      106             0.0000000000
     14155       112  POPC      H14Y            8.5946353610       28.7311764431       -3.3897476826  MEMB      106             0.0000000000
     14156       112  POPC      C315           10.3784044513       28.9718747959       -2.1654115682  MEMB      106             0.0000000000
     14157       112  POPC      H15X           10.1013950259       28.1968799644       -1.4144266220  MEMB      106             0.0000000000
     14158       112  POPC      H15Y            9.9729688209       29.9413096681       -1.7976881538  MEMB      106             0.0000000000
     14159       112  POPC      C316           11.9062916206       29.0714509995       -2.2483313796  MEMB      106             0.0000000000
     14160       112  POPC      H16X           12.3098226664       28.2593163812       -2.8784856210  MEMB      106             0.0000000000
     14161       112  POPC      H16Y           12.3710037085       28.9770477548       -1.2452560274  MEMB      106             0.0000000000
     14162       112  POPC      H16Z           12.2128174556       30.0423412556       -2.6940402384  MEMB      106             0.0000000000
     14163       113  POPC      N              31.9498875942        5.2802655513      -18.3805829762  MEMB      107             0.0000000000
     14164       113  POPC      C12            31.3093698697        6.0123724285      -19.5579954495  MEMB      107             0.0000000000
     14165       113  POPC      H12A           31.2364133813        5.3377635940      -20.4082772386  MEMB      107             0.0000000000
     14166       113  POPC      H12B           31.9504634340        6.8370030765      -19.8406995418  MEMB      107             0.0000000000
     14167       113  POPC      C13            31.6779745309        6.0623714014      -17.1287555047  MEMB      107             0.0000000000
     14168       113  POPC      H13A           31.9639972696        5.5301047760      -16.2331882813  MEMB      107             0.0000000000
     14169       113  POPC      H13B           32.1259547308        7.0461309961      -17.1458249821  MEMB      107             0.0000000000
     14170       113  POPC      H13C           30.5942995328        6.2091175515      -17.0725085611  MEMB      107             0.0000000000
     14171       113  POPC      C14            31.2418736882        3.9727599555      -18.2246027748  MEMB      107             0.0000000000
     14172       113  POPC      H14A           31.4312835420        3.3016930129      -19.0634848614  MEMB      107             0.0000000000
     14173       113  POPC      H14B           31.4564133847        3.4576702775      -17.3046687556  MEMB      107             0.0000000000
     14174       113  POPC      H14C           30.1624811508        4.1556538902      -18.2539347728  MEMB      107             0.0000000000
     14175       113  POPC      C15            33.4071591826        5.0115839203      -18.5795949126  MEMB      107             0.0000000000
     14176       113  POPC      H15A           33.7678362580        4.3772445518      -17.7722287847  MEMB      107             0.0000000000
     14177       113  POPC      H15B           34.0025497123        5.9103631563      -18.6239322564  MEMB      107             0.0000000000
     14178       113  POPC      H15C           33.5802019211        4.4624020635      -19.5033734015  MEMB      107             0.0000000000
     14179       113  POPC      C11            29.8817712833        6.6022996113      -19.3407276962  MEMB      107             0.0000000000
     14180       113  POPC      H11A           29.5429175503        7.1312565302      -20.2606958279  MEMB      107             0.0000000000
     14181       113  POPC      H11B           29.9500069202        7.3921275042      -18.5694562174  MEMB      107             0.0000000000
     14182       113  POPC      P              27.8098006291        5.0147881871      -19.8335604976  MEMB      107             0.0000000000
     14183       113  POPC      O13            27.7232305606        3.5692864341      -19.5545113383  MEMB      107             0.0000000000
     14184       113  POPC      O14            28.0992860604        5.3933370300      -21.2449524362  MEMB      107             0.0000000000
     14185       113  POPC      O12            28.9418320150        5.6273380860      -18.8971786653  MEMB      107             0.0000000000
     14186       113  POPC      O11            26.4676120180        5.6717798783      -19.3313675424  MEMB      107             0.0000000000
     14187       113  POPC      C1             26.3723525169        7.0512950246      -19.0046987460  MEMB      107             0.0000000000
     14188       113  POPC      HA             25.3717849090        7.3566324736      -19.3684916562  MEMB      107             0.0000000000
     14189       113  POPC      HB             27.0871602657        7.6766575073      -19.5725043546  MEMB      107             0.0000000000
     14190       113  POPC      C2             26.3488030885        7.3892342913      -17.4673644867  MEMB      107             0.0000000000
     14191       113  POPC      HS             25.6659291255        8.2646411750      -17.3576816502  MEMB      107             0.0000000000
     14192       113  POPC      O21            27.6213800436        7.7146008773      -16.8739897904  MEMB      107             0.0000000000
     14193       113  POPC      C21            28.2188073177        8.8021154607      -17.3006405027  MEMB      107             0.0000000000
     14194       113  POPC      O22            27.9270291645        9.4352356095      -18.3008046814  MEMB      107             0.0000000000
     14195       113  POPC      C22            29.3749924463        9.2007308601      -16.3498395912  MEMB      107             0.0000000000
     14196       113  POPC      H2R            29.2402758440       10.2845163922      -16.1387116091  MEMB      107             0.0000000000
     14197       113  POPC      H2S            30.3299302985        9.0759383986      -16.8930601241  MEMB      107             0.0000000000
     14198       113  POPC      C3             25.7404715885        6.2438102733      -16.6096189960  MEMB      107             0.0000000000
     14199       113  POPC      HX             24.8470966223        5.8882404956      -17.1703412040  MEMB      107             0.0000000000
     14200       113  POPC      HY             25.3830031560        6.6637200895      -15.6409418871  MEMB      107             0.0000000000
     14201       113  POPC      O31            26.6455907906        5.1314729266      -16.4157778244  MEMB      107             0.0000000000
     14202       113  POPC      C31            27.4894371999        5.2177263385      -15.3998670976  MEMB      107             0.0000000000
     14203       113  POPC      O32            27.4881301012        6.0481456575      -14.5102304148  MEMB      107             0.0000000000
     14204       113  POPC      C32            28.4749413262        4.0480682488      -15.5563678332  MEMB      107             0.0000000000
     14205       113  POPC      H2X            28.8794074745        4.1301285521      -16.5873904211  MEMB      107             0.0000000000
     14206       113  POPC      H2Y            27.8706301738        3.1269954172      -15.4978692244  MEMB      107             0.0000000000
     14207       113  POPC      C23            29.4388432744        8.4315121639      -15.0026590779  MEMB      107             0.0000000000
     14208       113  POPC      H3R            29.5891146637        7.3449270280      -15.1755122861  MEMB      107             0.0000000000
     14209       113  POPC      H3S            28.4529149699        8.5331838398      -14.5055243582  MEMB      107             0.0000000000
     14210       113  POPC      C24            30.5286674373        8.9398774562      -14.0429263389  MEMB      107             0.0000000000
     14211       113  POPC      H4R            30.6179750118       10.0458064659      -14.1573462014  MEMB      107             0.0000000000
     14212       113  POPC      H4S            31.5065421434        8.4910450920      -14.3262284362  MEMB      107             0.0000000000
     14213       113  POPC      C25            30.2471165209        8.6593383891      -12.5507101957  MEMB      107             0.0000000000
     14214       113  POPC      H5R            29.3357973156        9.2235474287      -12.2565698264  MEMB      107             0.0000000000
     14215       113  POPC      H5S            31.0936213670        9.0685125007      -11.9532967350  MEMB      107             0.0000000000
     14216       113  POPC      C26            30.0640140376        7.1763845918      -12.1753422267  MEMB      107             0.0000000000
     14217       113  POPC      H6R            31.0010782339        6.6393204880      -12.4500764292  MEMB      107             0.0000000000
     14218       113  POPC      H6S            29.2297917610        6.7269994664      -12.7540592553  MEMB      107             0.0000000000
     14219       113  POPC      C27            29.8107976772        6.9504065428      -10.6679044132  MEMB      107             0.0000000000
     14220       113  POPC      H7R            30.5400788153        7.5759521524      -10.1070340467  MEMB      107             0.0000000000
     14221       113  POPC      H7S            30.0396009492        5.8902934594      -10.4149373444  MEMB      107             0.0000000000
     14222       113  POPC      C28            28.3853615015        7.2928948447      -10.1762799613  MEMB      107             0.0000000000
     14223       113  POPC      H8R            28.0805046333        8.2624438294      -10.6246564007  MEMB      107             0.0000000000
     14224       113  POPC      H8S            28.4504184097        7.4767965881       -9.0819647838  MEMB      107             0.0000000000
     14225       113  POPC      C29            27.3550623690        6.2305918076      -10.4959233243  MEMB      107             0.0000000000
     14226       113  POPC      H91            27.2151125957        6.0519935826      -11.5763302867  MEMB      107             0.0000000000
     14227       113  POPC      C210           26.6272049450        5.5027907467       -9.6182808590  MEMB      107             0.0000000000
     14228       113  POPC      H101           25.8986206313        4.7764009233      -10.0174937079  MEMB      107             0.0000000000
     14229       113  POPC      C211           26.6838801534        5.5898910751       -8.1084228120  MEMB      107             0.0000000000
     14230       113  POPC      H11R           25.8345451610        6.1965658606       -7.7305088163  MEMB      107             0.0000000000
     14231       113  POPC      H11S           27.6108915626        6.1035986666       -7.7758235454  MEMB      107             0.0000000000
     14232       113  POPC      C212           26.6411011049        4.2402946519       -7.3561249297  MEMB      107             0.0000000000
     14233       113  POPC      H12R           27.4932196130        3.6118563830       -7.6968735871  MEMB      107             0.0000000000
     14234       113  POPC      H12S           25.6991869390        3.6951027074       -7.5836205967  MEMB      107             0.0000000000
     14235       113  POPC      C213           26.7541077275        4.4455526497       -5.8335242478  MEMB      107             0.0000000000
     14236       113  POPC      H13R           25.8358665842        4.9454610929       -5.4541309825  MEMB      107             0.0000000000
     14237       113  POPC      H13S           27.6025536434        5.1346583654       -5.6415389146  MEMB      107             0.0000000000
     14238       113  POPC      C214           27.0278216513        3.1612964021       -5.0376596492  MEMB      107             0.0000000000
     14239       113  POPC      H14R           27.7955835426        2.5623336527       -5.5792885541  MEMB      107             0.0000000000
     14240       113  POPC      H14S           26.1050075078        2.5458846906       -4.9893433368  MEMB      107             0.0000000000
     14241       113  POPC      C215           27.5626615784        3.4181207214       -3.6137548047  MEMB      107             0.0000000000
     14242       113  POPC      H15R           28.5867117925        3.8486917714       -3.6904688536  MEMB      107             0.0000000000
     14243       113  POPC      H15S           27.6511129731        2.4350542415       -3.1016138830  MEMB      107             0.0000000000
     14244       113  POPC      C216           26.7110684837        4.3696276050       -2.7532374199  MEMB      107             0.0000000000
     14245       113  POPC      H16R           25.6676078135        3.9921918611       -2.6923100104  MEMB      107             0.0000000000
     14246       113  POPC      H16S           26.6790934254        5.3684967297       -3.2437678011  MEMB      107             0.0000000000
     14247       113  POPC      C217           27.2665917952        4.5512167934       -1.3291828263  MEMB      107             0.0000000000
     14248       113  POPC      H17R           26.7238957621        5.3918548651       -0.8374593643  MEMB      107             0.0000000000
     14249       113  POPC      H17S           28.3375762367        4.8492331159       -1.4026611008  MEMB      107             0.0000000000
     14250       113  POPC      C218           27.1499998785        3.3085726335       -0.4397739931  MEMB      107             0.0000000000
     14251       113  POPC      H18R           27.6034823167        2.4266443514       -0.9315646954  MEMB      107             0.0000000000
     14252       113  POPC      H18S           26.0859286415        3.0736168121       -0.2299366786  MEMB      107             0.0000000000
     14253       113  POPC      H18T           27.6673990990        3.4701694318        0.5300235828  MEMB      107             0.0000000000
     14254       113  POPC      C33            29.6507186688        3.9460855804      -14.5508282321  MEMB      107             0.0000000000
     14255       113  POPC      H3X            30.1548097276        4.9268743344      -14.4141927001  MEMB      107             0.0000000000
     14256       113  POPC      H3Y            30.4029761847        3.2466328671      -14.9861522687  MEMB      107             0.0000000000
     14257       113  POPC      C34            29.2525090362        3.3754680869      -13.1797674065  MEMB      107             0.0000000000
     14258       113  POPC      H4X            28.5653870040        2.5096338401      -13.2986404251  MEMB      107             0.0000000000
     14259       113  POPC      H4Y            28.6948980706        4.1622310712      -12.6193085680  MEMB      107             0.0000000000
     14260       113  POPC      C35            30.4638482015        2.9092680613      -12.3547537924  MEMB      107             0.0000000000
     14261       113  POPC      H5X            31.2278666938        3.7198339669      -12.3575934325  MEMB      107             0.0000000000
     14262       113  POPC      H5Y            30.9218834076        2.0107237563      -12.8227174095  MEMB      107             0.0000000000
     14263       113  POPC      C36            30.1042504746        2.5973021487      -10.8922355044  MEMB      107             0.0000000000
     14264       113  POPC      H6X            29.3511618288        1.7799984399      -10.8590298296  MEMB      107             0.0000000000
     14265       113  POPC      H6Y            29.6256930335        3.5070101976      -10.4653152634  MEMB      107             0.0000000000
     14266       113  POPC      C37            31.3267123548        2.2077781872      -10.0370257061  MEMB      107             0.0000000000
     14267       113  POPC      H7X            32.1116165552        2.9892641354      -10.1410730534  MEMB      107             0.0000000000
     14268       113  POPC      H7Y            31.7471882491        1.2623341254      -10.4500881892  MEMB      107             0.0000000000
     14269       113  POPC      C38            31.0121543754        1.9826264265       -8.5424875896  MEMB      107             0.0000000000
     14270       113  POPC      H8X            31.9224786438        1.5981813018       -8.0295185725  MEMB      107             0.0000000000
     14271       113  POPC      H8Y            30.2331058232        1.1896909847       -8.4719891560  MEMB      107             0.0000000000
     14272       113  POPC      C39            30.5084643318        3.2274834756       -7.7851428824  MEMB      107             0.0000000000
     14273       113  POPC      H9X            30.1140329640        2.9130521846       -6.7929608620  MEMB      107             0.0000000000
     14274       113  POPC      H9Y            29.6566059825        3.6738380260       -8.3433281314  MEMB      107             0.0000000000
     14275       113  POPC      C310           31.5780025352        4.3102106684       -7.5662676917  MEMB      107             0.0000000000
     14276       113  POPC      H10X           32.1203846180        4.4649294126       -8.5284888336  MEMB      107             0.0000000000
     14277       113  POPC      H10Y           32.3177373680        3.9724062610       -6.8087045071  MEMB      107             0.0000000000
     14278       113  POPC      C311           30.9718410819        5.6663475559       -7.1699638150  MEMB      107             0.0000000000
     14279       113  POPC      H11X           30.1354807141        5.8891016615       -7.8718280401  MEMB      107             0.0000000000
     14280       113  POPC      H11Y           31.7386079458        6.4603148970       -7.3121340454  MEMB      107             0.0000000000
     14281       113  POPC      C312           30.4442327935        5.7616353397       -5.7288316842  MEMB      107             0.0000000000
     14282       113  POPC      H12X           31.3058160468        5.7751027819       -5.0253708899  MEMB      107             0.0000000000
     14283       113  POPC      H12Y           29.8217065764        4.8733508297       -5.4873228993  MEMB      107             0.0000000000
     14284       113  POPC      C313           29.6044779821        7.0374366300       -5.5484714365  MEMB      107             0.0000000000
     14285       113  POPC      H13X           28.6404046831        6.9321473871       -6.0874029705  MEMB      107             0.0000000000
     14286       113  POPC      H13Y           30.1439591795        7.8641315061       -6.0543198553  MEMB      107             0.0000000000
     14287       113  POPC      C314           29.3225425701        7.4340469627       -4.0916554143  MEMB      107             0.0000000000
     14288       113  POPC      H14X           30.2871394173        7.5374790727       -3.5479967315  MEMB      107             0.0000000000
     14289       113  POPC      H14Y           28.7418617855        6.6289150397       -3.5903370874  MEMB      107             0.0000000000
     14290       113  POPC      C315           28.5499265901        8.7610193415       -4.0068017594  MEMB      107             0.0000000000
     14291       113  POPC      H15X           27.5637195270        8.6296687098       -4.5077505372  MEMB      107             0.0000000000
     14292       113  POPC      H15Y           29.1086495787        9.5367136583       -4.5785964430  MEMB      107             0.0000000000
     14293       113  POPC      C316           28.3299261459        9.2775493640       -2.5831742316  MEMB      107             0.0000000000
     14294       113  POPC      H16X           27.8496678429       10.2799123842       -2.6038437052  MEMB      107             0.0000000000
     14295       113  POPC      H16Y           29.3021127680        9.3659812658       -2.0521821520  MEMB      107             0.0000000000
     14296       113  POPC      H16Z           27.6713861351        8.5876388714       -2.0143643368  MEMB      107             0.0000000000
     14297       114  POPS      N              26.2271489076      -10.4890193673      -19.3594934334  MEMB      108             0.0000000000
     14298       114  POPS      HN1            25.5210404295       -9.8239799890      -19.0086367886  MEMB      108             0.0000000000
     14299       114  POPS      HN2            26.9041204250       -9.9942046735      -19.9797585988  MEMB      108             0.0000000000
     14300       114  POPS      HN3            25.7774886769      -11.2998391347      -19.8547269582  MEMB      108             0.0000000000
     14301       114  POPS      C12            27.0257535020      -11.1189646394      -18.2692550842  MEMB      108             0.0000000000
     14302       114  POPS      H12A           26.4440506032      -11.1635269644      -17.3603190646  MEMB      108             0.0000000000
     14303       114  POPS      C13            28.3781798202      -10.4424959601      -17.9836669618  MEMB      108             0.0000000000
     14304       114  POPS      O13A           28.8335440142       -9.6086726382      -18.8080051790  MEMB      108             0.0000000000
     14305       114  POPS      O13B           29.0012102937      -10.8372998163      -16.9692201203  MEMB      108             0.0000000000
     14306       114  POPS      C11            27.4040610263      -12.5305086104      -18.7713043102  MEMB      108             0.0000000000
     14307       114  POPS      H11A           27.7670637240      -13.1296177240      -17.9131541505  MEMB      108             0.0000000000
     14308       114  POPS      H11B           28.2723742741      -12.4323105616      -19.4466113254  MEMB      108             0.0000000000
     14309       114  POPS      P              26.6596356162      -14.5456270732      -20.1742941855  MEMB      108             0.0000000000
     14310       114  POPS      O13            28.0342522930      -14.4374455134      -20.7367754166  MEMB      108             0.0000000000
     14311       114  POPS      O14            25.5401298347      -14.6822119793      -21.1407464247  MEMB      108             0.0000000000
     14312       114  POPS      O12            26.3206915814      -13.1725299043      -19.4561422720  MEMB      108             0.0000000000
     14313       114  POPS      O11            26.6257416581      -15.5968291031      -19.0084583388  MEMB      108             0.0000000000
     14314       114  POPS      C1             25.6459470434      -15.6255284744      -17.9704261803  MEMB      108             0.0000000000
     14315       114  POPS      HA             25.6935354330      -16.6565292150      -17.5840545194  MEMB      108             0.0000000000
     14316       114  POPS      HB             24.6198137642      -15.4582259073      -18.3655791509  MEMB      108             0.0000000000
     14317       114  POPS      C2             25.8908364526      -14.7121880687      -16.7115045403  MEMB      108             0.0000000000
     14318       114  POPS      HS             25.6610324369      -13.6684342026      -17.0241103902  MEMB      108             0.0000000000
     14319       114  POPS      O21            27.2592522501      -14.8215685897      -16.2890768648  MEMB      108             0.0000000000
     14320       114  POPS      C21            27.6130237086      -13.8562083936      -15.4436825210  MEMB      108             0.0000000000
     14321       114  POPS      O22            26.9819894756      -12.8293666059      -15.2509939647  MEMB      108             0.0000000000
     14322       114  POPS      C22            28.9462798047      -14.2061465085      -14.8361326477  MEMB      108             0.0000000000
     14323       114  POPS      H2R            29.6953980206      -13.5005710139      -15.2508805078  MEMB      108             0.0000000000
     14324       114  POPS      H2S            29.2094560690      -15.2386119737      -15.1619122826  MEMB      108             0.0000000000
     14325       114  POPS      C3             24.9129492257      -15.0860585438      -15.5327716841  MEMB      108             0.0000000000
     14326       114  POPS      HX             24.6719352360      -16.1559998203      -15.6185183548  MEMB      108             0.0000000000
     14327       114  POPS      HY             23.9830635018      -14.5176161348      -15.7255646212  MEMB      108             0.0000000000
     14328       114  POPS      O31            25.3806933248      -14.7988830055      -14.1913707588  MEMB      108             0.0000000000
     14329       114  POPS      C31            24.4164201283      -14.8908637847      -13.2823151067  MEMB      108             0.0000000000
     14330       114  POPS      O32            23.3577978091      -15.4741255754      -13.4424336963  MEMB      108             0.0000000000
     14331       114  POPS      C32            24.7856130801      -14.0683377381      -12.0630027744  MEMB      108             0.0000000000
     14332       114  POPS      H2X            25.8698014085      -13.8442619675      -12.0712420456  MEMB      108             0.0000000000
     14333       114  POPS      H2Y            24.5515816121      -14.6703592378      -11.1628491934  MEMB      108             0.0000000000
     14334       114  POPS      C23            28.9284555114      -14.1664622461      -13.2934006710  MEMB      108             0.0000000000
     14335       114  POPS      H3R            29.5681545249      -15.0019411931      -12.9297056972  MEMB      108             0.0000000000
     14336       114  POPS      H3S            27.9092356450      -14.3709348518      -12.9019023731  MEMB      108             0.0000000000
     14337       114  POPS      C24            29.4916460093      -12.8560600947      -12.7338947209  MEMB      108             0.0000000000
     14338       114  POPS      H4R            29.8354465395      -12.2128356823      -13.5756370618  MEMB      108             0.0000000000
     14339       114  POPS      H4S            30.3773916842      -13.0754639235      -12.0974961760  MEMB      108             0.0000000000
     14340       114  POPS      C25            28.4617013980      -12.0594286148      -11.9311536345  MEMB      108             0.0000000000
     14341       114  POPS      H5R            27.5559023057      -11.9329351169      -12.5647392669  MEMB      108             0.0000000000
     14342       114  POPS      H5S            28.8664472270      -11.0452691037      -11.7225885603  MEMB      108             0.0000000000
     14343       114  POPS      C26            28.0741425572      -12.7271253758      -10.6103551153  MEMB      108             0.0000000000
     14344       114  POPS      H6R            28.9701576456      -12.8549434087       -9.9666883512  MEMB      108             0.0000000000
     14345       114  POPS      H6S            27.6764414620      -13.7477113997      -10.7986433265  MEMB      108             0.0000000000
     14346       114  POPS      C27            27.0306203080      -11.8912481662       -9.8680203611  MEMB      108             0.0000000000
     14347       114  POPS      H7R            26.1065245669      -11.8689008014      -10.4759508617  MEMB      108             0.0000000000
     14348       114  POPS      H7S            27.4115926072      -10.8480615186       -9.7817700879  MEMB      108             0.0000000000
     14349       114  POPS      C28            26.7169303168      -12.4161488232       -8.4665217188  MEMB      108             0.0000000000
     14350       114  POPS      H8R            26.1773816323      -11.6355492659       -7.8871660130  MEMB      108             0.0000000000
     14351       114  POPS      H8S            27.6955411425      -12.5609093673       -7.9622007313  MEMB      108             0.0000000000
     14352       114  POPS      C29            25.8840255115      -13.6693810005       -8.5336506543  MEMB      108             0.0000000000
     14353       114  POPS      H91            24.8248612807      -13.5019705276       -8.7863517893  MEMB      108             0.0000000000
     14354       114  POPS      C210           26.3125297399      -14.9288089304       -8.3468445797  MEMB      108             0.0000000000
     14355       114  POPS      H101           25.5776071469      -15.7377650273       -8.4449372751  MEMB      108             0.0000000000
     14356       114  POPS      C211           27.7212893298      -15.3712972192       -8.0268929711  MEMB      108             0.0000000000
     14357       114  POPS      H11R           28.4374860324      -14.5206590595       -8.0458348585  MEMB      108             0.0000000000
     14358       114  POPS      H11S           28.0802747713      -16.0769769596       -8.8110925403  MEMB      108             0.0000000000
     14359       114  POPS      C212           27.8577746623      -16.0797897475       -6.6611967307  MEMB      108             0.0000000000
     14360       114  POPS      H12R           28.9387097476      -16.2560668513       -6.4864357460  MEMB      108             0.0000000000
     14361       114  POPS      H12S           27.3821421884      -17.0790869602       -6.7159306027  MEMB      108             0.0000000000
     14362       114  POPS      C213           27.2799234081      -15.3285340820       -5.4451456104  MEMB      108             0.0000000000
     14363       114  POPS      H13R           27.4391925121      -15.9445420377       -4.5332633721  MEMB      108             0.0000000000
     14364       114  POPS      H13S           26.1820802791      -15.2064901462       -5.5738696830  MEMB      108             0.0000000000
     14365       114  POPS      C214           27.9130056604      -13.9533740589       -5.2127491164  MEMB      108             0.0000000000
     14366       114  POPS      H14R           27.7824323612      -13.3495759740       -6.1279879927  MEMB      108             0.0000000000
     14367       114  POPS      H14S           29.0027267573      -14.0558900407       -5.0372709866  MEMB      108             0.0000000000
     14368       114  POPS      C215           27.2914006955      -13.1798373721       -4.0454860945  MEMB      108             0.0000000000
     14369       114  POPS      H15R           27.3548404487      -13.8112994381       -3.1348803720  MEMB      108             0.0000000000
     14370       114  POPS      H15S           26.2162064892      -13.0012839888       -4.2649952884  MEMB      108             0.0000000000
     14371       114  POPS      C216           27.9717256226      -11.8300427692       -3.7615396331  MEMB      108             0.0000000000
     14372       114  POPS      H16R           29.0221044201      -11.9968059792       -3.4688546747  MEMB      108             0.0000000000
     14373       114  POPS      H16S           27.4707773090      -11.3562689927       -2.8920498205  MEMB      108             0.0000000000
     14374       114  POPS      C217           27.9688787832      -10.8599928949       -4.9460927350  MEMB      108             0.0000000000
     14375       114  POPS      H17R           27.8525074133       -9.8205376589       -4.5580384238  MEMB      108             0.0000000000
     14376       114  POPS      H17S           27.0870920281      -11.0742949319       -5.5905752621  MEMB      108             0.0000000000
     14377       114  POPS      C218           29.2525359611      -10.9124650816       -5.7734462719  MEMB      108             0.0000000000
     14378       114  POPS      H18R           29.1362330057      -10.2704850402       -6.6673754619  MEMB      108             0.0000000000
     14379       114  POPS      H18S           29.4760534132      -11.9402102091       -6.1275710499  MEMB      108             0.0000000000
     14380       114  POPS      H18T           30.1214310854      -10.5596588850       -5.1790179838  MEMB      108             0.0000000000
     14381       114  POPS      C33            23.9767110738      -12.7556569278      -12.0755694209  MEMB      108             0.0000000000
     14382       114  POPS      H3X            24.0731198044      -12.2594174189      -11.0840700599  MEMB      108             0.0000000000
     14383       114  POPS      H3Y            22.9046687022      -12.9897115213      -12.2309452866  MEMB      108             0.0000000000
     14384       114  POPS      C34            24.4416437858      -11.7839808214      -13.1696828355  MEMB      108             0.0000000000
     14385       114  POPS      H4X            24.4223818472      -12.2865200321      -14.1625343517  MEMB      108             0.0000000000
     14386       114  POPS      H4Y            25.4994964729      -11.5033001615      -12.9813296433  MEMB      108             0.0000000000
     14387       114  POPS      C35            23.5906224657      -10.5108410579      -13.2675408049  MEMB      108             0.0000000000
     14388       114  POPS      H5X            22.5729696359      -10.7856282260      -13.6292634809  MEMB      108             0.0000000000
     14389       114  POPS      H5Y            24.0477406439       -9.8412078346      -14.0328282842  MEMB      108             0.0000000000
     14390       114  POPS      C36            23.4501636093       -9.7158651006      -11.9587768722  MEMB      108             0.0000000000
     14391       114  POPS      H6X            22.8715729681      -10.3063627746      -11.2167532810  MEMB      108             0.0000000000
     14392       114  POPS      H6Y            22.8748772583       -8.7968555791      -12.1944137870  MEMB      108             0.0000000000
     14393       114  POPS      C37            24.7977894847       -9.2884097829      -11.3634915311  MEMB      108             0.0000000000
     14394       114  POPS      H7X            25.3178082448       -8.6534802708      -12.1171401918  MEMB      108             0.0000000000
     14395       114  POPS      H7Y            25.4344204813      -10.1735634311      -11.2082211062  MEMB      108             0.0000000000
     14396       114  POPS      C38            24.7090908818       -8.5040052753      -10.0443404163  MEMB      108             0.0000000000
     14397       114  POPS      H8X            24.1363455567       -7.5779743317      -10.2445134176  MEMB      108             0.0000000000
     14398       114  POPS      H8Y            25.7415937985       -8.1931230804       -9.7639375889  MEMB      108             0.0000000000
     14399       114  POPS      C39            24.1041285580       -9.2568993709       -8.8411362885  MEMB      108             0.0000000000
     14400       114  POPS      H9X            24.6945322596      -10.1836407823       -8.6755528376  MEMB      108             0.0000000000
     14401       114  POPS      H9Y            23.0544391515       -9.5573024854       -9.0485599052  MEMB      108             0.0000000000
     14402       114  POPS      C310           24.1543635010       -8.3913138346       -7.5689736418  MEMB      108             0.0000000000
     14403       114  POPS      H10X           23.3816486510       -7.5963259056       -7.6310414226  MEMB      108             0.0000000000
     14404       114  POPS      H10Y           25.1465433797       -7.8852021696       -7.5399456141  MEMB      108             0.0000000000
     14405       114  POPS      C311           23.9785569969       -9.1323363933       -6.2335834131  MEMB      108             0.0000000000
     14406       114  POPS      H11X           24.5916781939      -10.0611676764       -6.2368002076  MEMB      108             0.0000000000
     14407       114  POPS      H11Y           22.9125438405       -9.4200018216       -6.1011614401  MEMB      108             0.0000000000
     14408       114  POPS      C312           24.4416420336       -8.2368497580       -5.0688421871  MEMB      108             0.0000000000
     14409       114  POPS      H12X           24.0088511973       -7.2204400592       -5.1989248823  MEMB      108             0.0000000000
     14410       114  POPS      H12Y           25.5477674468       -8.1235137310       -5.1338510226  MEMB      108             0.0000000000
     14411       114  POPS      C313           24.0846302630       -8.7369988714       -3.6599615209  MEMB      108             0.0000000000
     14412       114  POPS      H13X           22.9815828439       -8.7512161233       -3.5217161643  MEMB      108             0.0000000000
     14413       114  POPS      H13Y           24.4977284686       -7.9949272806       -2.9379928511  MEMB      108             0.0000000000
     14414       114  POPS      C314           24.6719224599      -10.1160896836       -3.3267696565  MEMB      108             0.0000000000
     14415       114  POPS      H14X           25.5046633571      -10.3244547181       -4.0318811633  MEMB      108             0.0000000000
     14416       114  POPS      H14Y           23.9011574969      -10.9005944376       -3.4885429967  MEMB      108             0.0000000000
     14417       114  POPS      C315           25.2276171178      -10.2161562650       -1.8983564790  MEMB      108             0.0000000000
     14418       114  POPS      H15X           26.0864783607       -9.5137045842       -1.8076444503  MEMB      108             0.0000000000
     14419       114  POPS      H15Y           25.6302249169      -11.2434312214       -1.7483606011  MEMB      108             0.0000000000
     14420       114  POPS      C316           24.2105548306       -9.9187503332       -0.7954501267  MEMB      108             0.0000000000
     14421       114  POPS      H16X           23.8512881815       -8.8704232670       -0.8530615638  MEMB      108             0.0000000000
     14422       114  POPS      H16Y           24.6632097882      -10.0789880228        0.2066447641  MEMB      108             0.0000000000
     14423       114  POPS      H16Z           23.3373656734      -10.5931501657       -0.8908479586  MEMB      108             0.0000000000
     14424       115  POPC      N             -30.9148189746        0.6074677099      -20.8191372132  MEMB      109             0.0000000000
     14425       115  POPC      C12           -30.4261782407        1.6066008881      -19.7741221854  MEMB      109             0.0000000000
     14426       115  POPC      H12A          -30.9350255505        2.5522868057      -19.8635924804  MEMB      109             0.0000000000
     14427       115  POPC      H12B          -29.3764462585        1.8361610060      -19.9866210296  MEMB      109             0.0000000000
     14428       115  POPC      C13           -32.4026605854        0.4265464185      -20.8151190447  MEMB      109             0.0000000000
     14429       115  POPC      H13A          -32.9358612108        1.2909241643      -21.1903063774  MEMB      109             0.0000000000
     14430       115  POPC      H13B          -32.7084477012       -0.3997573381      -21.4544958248  MEMB      109             0.0000000000
     14431       115  POPC      H13C          -32.7751395324        0.2182564903      -19.8184193531  MEMB      109             0.0000000000
     14432       115  POPC      C14           -30.4657098838        1.0332789753      -22.1831639131  MEMB      109             0.0000000000
     14433       115  POPC      H14A          -29.3854430710        1.1306295353      -22.2212621215  MEMB      109             0.0000000000
     14434       115  POPC      H14B          -30.7155106285        0.2780344565      -22.9296057886  MEMB      109             0.0000000000
     14435       115  POPC      H14C          -30.9247329764        1.9668988458      -22.4825019602  MEMB      109             0.0000000000
     14436       115  POPC      C15           -30.2565030912       -0.6990517330      -20.4898586371  MEMB      109             0.0000000000
     14437       115  POPC      H15A          -30.5430240856       -1.0192208888      -19.4875419176  MEMB      109             0.0000000000
     14438       115  POPC      H15B          -29.1791944294       -0.5651108707      -20.4189352954  MEMB      109             0.0000000000
     14439       115  POPC      H15C          -30.4667771116       -1.4800875559      -21.1977330010  MEMB      109             0.0000000000
     14440       115  POPC      C11           -30.4300908699        1.1277963115      -18.2966935066  MEMB      109             0.0000000000
     14441       115  POPC      H11A          -31.3402072141        0.5213912071      -18.0835648226  MEMB      109             0.0000000000
     14442       115  POPC      H11B          -30.4932465382        2.0114859572      -17.6208884079  MEMB      109             0.0000000000
     14443       115  POPC      P             -27.8363883963        1.0588783878      -18.0414308623  MEMB      109             0.0000000000
     14444       115  POPC      O13           -27.3028648909        0.9033096760      -19.4200717747  MEMB      109             0.0000000000
     14445       115  POPC      O14           -26.9728076095        0.6216908216      -16.9291423814  MEMB      109             0.0000000000
     14446       115  POPC      O12           -29.2583898649        0.3515607691      -18.0092553872  MEMB      109             0.0000000000
     14447       115  POPC      O11           -28.2298922712        2.5865705215      -17.8608890463  MEMB      109             0.0000000000
     14448       115  POPC      C1            -27.5755123269        3.4552500185      -16.9346431251  MEMB      109             0.0000000000
     14449       115  POPC      HA            -27.4599445556        4.4556724976      -17.4150890977  MEMB      109             0.0000000000
     14450       115  POPC      HB            -26.5365830222        3.1241652416      -16.7000960859  MEMB      109             0.0000000000
     14451       115  POPC      C2            -28.3361503345        3.6938242956      -15.5757843205  MEMB      109             0.0000000000
     14452       115  POPC      HS            -27.7519091927        4.4853415095      -15.0385972876  MEMB      109             0.0000000000
     14453       115  POPC      O21           -28.4746936538        2.5082739152      -14.7749014805  MEMB      109             0.0000000000
     14454       115  POPC      C21           -27.3482770188        2.2399193480      -14.1393547483  MEMB      109             0.0000000000
     14455       115  POPC      O22           -26.3198869831        2.8848124682      -14.2169733354  MEMB      109             0.0000000000
     14456       115  POPC      C22           -27.4657452600        1.0580355105      -13.2050657687  MEMB      109             0.0000000000
     14457       115  POPC      H2R           -26.5974000831        1.0946461163      -12.5132928528  MEMB      109             0.0000000000
     14458       115  POPC      H2S           -27.3961118180        0.1404642206      -13.8289329138  MEMB      109             0.0000000000
     14459       115  POPC      C3            -29.7613125921        4.3065865652      -15.7152199989  MEMB      109             0.0000000000
     14460       115  POPC      HX            -29.7352213972        4.8771449448      -16.6580610929  MEMB      109             0.0000000000
     14461       115  POPC      HY            -29.8336359116        5.0223133386      -14.8707876247  MEMB      109             0.0000000000
     14462       115  POPC      O31           -30.8820533596        3.3882528869      -15.7370093160  MEMB      109             0.0000000000
     14463       115  POPC      C31           -31.4975346412        3.1551968145      -14.5712685552  MEMB      109             0.0000000000
     14464       115  POPC      O32           -31.3199332793        3.7828411325      -13.5405619627  MEMB      109             0.0000000000
     14465       115  POPC      C32           -32.5280133918        2.0557846777      -14.8025813944  MEMB      109             0.0000000000
     14466       115  POPC      H2X           -32.9497157888        2.1806657071      -15.8218939413  MEMB      109             0.0000000000
     14467       115  POPC      H2Y           -33.3482360319        2.1908082519      -14.0706046890  MEMB      109             0.0000000000
     14468       115  POPC      C23           -28.7763791755        1.0428452849      -12.3968033215  MEMB      109             0.0000000000
     14469       115  POPC      H3R           -28.7314885488        0.1139807481      -11.7882085196  MEMB      109             0.0000000000
     14470       115  POPC      H3S           -29.6258895212        0.9469566293      -13.1047422729  MEMB      109             0.0000000000
     14471       115  POPC      C24           -29.0724038686        2.2381167347      -11.4695172117  MEMB      109             0.0000000000
     14472       115  POPC      H4R           -30.0333395714        2.0080250016      -10.9514092918  MEMB      109             0.0000000000
     14473       115  POPC      H4S           -29.2511339001        3.1536460580      -12.0774352830  MEMB      109             0.0000000000
     14474       115  POPC      C25           -28.0034100442        2.5268434779      -10.4038500659  MEMB      109             0.0000000000
     14475       115  POPC      H5R           -27.2762095134        3.2608290877      -10.8182420611  MEMB      109             0.0000000000
     14476       115  POPC      H5S           -27.4389077154        1.5918607887      -10.1907489903  MEMB      109             0.0000000000
     14477       115  POPC      C26           -28.5474075012        3.0605278216       -9.0573867454  MEMB      109             0.0000000000
     14478       115  POPC      H6R           -27.7042484686        3.5547078555       -8.5279413450  MEMB      109             0.0000000000
     14479       115  POPC      H6S           -28.8746596596        2.2104980681       -8.4193997670  MEMB      109             0.0000000000
     14480       115  POPC      C27           -29.7108654122        4.0622844461       -9.1617313248  MEMB      109             0.0000000000
     14481       115  POPC      H7R           -30.6784066894        3.5126758740       -9.1301057110  MEMB      109             0.0000000000
     14482       115  POPC      H7S           -29.6490122511        4.5732652065      -10.1504607313  MEMB      109             0.0000000000
     14483       115  POPC      C28           -29.6878292370        5.1721055537       -8.0817026665  MEMB      109             0.0000000000
     14484       115  POPC      H8R           -30.5598869363        5.8366313415       -8.2811484263  MEMB      109             0.0000000000
     14485       115  POPC      H8S           -28.7869397326        5.7892688711       -8.2815187282  MEMB      109             0.0000000000
     14486       115  POPC      C29           -29.7256205754        4.7333867754       -6.6341724791  MEMB      109             0.0000000000
     14487       115  POPC      H91           -30.6952844566        4.3248498031       -6.3079504640  MEMB      109             0.0000000000
     14488       115  POPC      C210          -28.7064767906        4.7683023078       -5.7444026141  MEMB      109             0.0000000000
     14489       115  POPC      H101          -28.9000835122        4.4535095017       -4.7115006724  MEMB      109             0.0000000000
     14490       115  POPC      C211          -27.2951895264        5.2492554813       -5.9947520538  MEMB      109             0.0000000000
     14491       115  POPC      H11R          -27.2436252813        5.8521393522       -6.9248532083  MEMB      109             0.0000000000
     14492       115  POPC      H11S          -26.6781655856        4.3553605345       -6.1797264554  MEMB      109             0.0000000000
     14493       115  POPC      C212          -26.5044492574        6.0364776109       -4.9168423396  MEMB      109             0.0000000000
     14494       115  POPC      H12R          -26.9875839406        7.0015810905       -4.6749429145  MEMB      109             0.0000000000
     14495       115  POPC      H12S          -25.5195137345        6.2860968043       -5.3780981220  MEMB      109             0.0000000000
     14496       115  POPC      C213          -26.2193882935        5.2611271791       -3.6188702947  MEMB      109             0.0000000000
     14497       115  POPC      H13R          -26.0163985403        4.2012883469       -3.8758127144  MEMB      109             0.0000000000
     14498       115  POPC      H13S          -27.1317066556        5.2727310033       -2.9877260739  MEMB      109             0.0000000000
     14499       115  POPC      C214          -24.9997864377        5.8229060495       -2.8550528458  MEMB      109             0.0000000000
     14500       115  POPC      H14R          -24.9450652043        6.9198940109       -3.0439968569  MEMB      109             0.0000000000
     14501       115  POPC      H14S          -24.0785786216        5.3698702586       -3.2845967992  MEMB      109             0.0000000000
     14502       115  POPC      C215          -24.9953882507        5.6220082897       -1.3241425434  MEMB      109             0.0000000000
     14503       115  POPC      H15R          -25.6952932971        6.3573587423       -0.8728614835  MEMB      109             0.0000000000
     14504       115  POPC      H15S          -23.9836784220        5.8675815329       -0.9310504071  MEMB      109             0.0000000000
     14505       115  POPC      C216          -25.4040392759        4.2270192084       -0.8243978763  MEMB      109             0.0000000000
     14506       115  POPC      H16R          -24.6583751380        3.4774828336       -1.1593021522  MEMB      109             0.0000000000
     14507       115  POPC      H16S          -26.3868066738        3.9580179447       -1.2682606254  MEMB      109             0.0000000000
     14508       115  POPC      C217          -25.5302289214        4.1578211330        0.7063685239  MEMB      109             0.0000000000
     14509       115  POPC      H17R          -25.9711534365        5.1097915978        1.0777516975  MEMB      109             0.0000000000
     14510       115  POPC      H17S          -24.5126562840        4.0824147035        1.1498325086  MEMB      109             0.0000000000
     14511       115  POPC      C218          -26.4084172730        3.0076035242        1.2044439618  MEMB      109             0.0000000000
     14512       115  POPC      H18R          -27.4449127326        3.1198829393        0.8225039424  MEMB      109             0.0000000000
     14513       115  POPC      H18S          -26.4492538133        3.0022431995        2.3143774701  MEMB      109             0.0000000000
     14514       115  POPC      H18T          -26.0096218802        2.0290333442        0.8613978345  MEMB      109             0.0000000000
     14515       115  POPC      C33           -31.9295035851        0.6381620495      -14.6647539116  MEMB      109             0.0000000000
     14516       115  POPC      H3X           -30.8398330024        0.6348373435      -14.8977386394  MEMB      109             0.0000000000
     14517       115  POPC      H3Y           -32.4133889512       -0.0261418495      -15.4166640574  MEMB      109             0.0000000000
     14518       115  POPC      C34           -32.2036380956        0.0378585622      -13.2777536766  MEMB      109             0.0000000000
     14519       115  POPC      H4X           -33.2992900617       -0.1360315573      -13.1789890470  MEMB      109             0.0000000000
     14520       115  POPC      H4Y           -31.9071002992        0.7659553394      -12.4893215403  MEMB      109             0.0000000000
     14521       115  POPC      C35           -31.4594975390       -1.2831944589      -13.0530482601  MEMB      109             0.0000000000
     14522       115  POPC      H5X           -30.3717274651       -1.0803521042      -12.9618579973  MEMB      109             0.0000000000
     14523       115  POPC      H5Y           -31.5846562022       -1.9194665317      -13.9602488666  MEMB      109             0.0000000000
     14524       115  POPC      C36           -31.9393383542       -2.0948604381      -11.8357070004  MEMB      109             0.0000000000
     14525       115  POPC      H6X           -31.2247401672       -2.9334603860      -11.6740758029  MEMB      109             0.0000000000
     14526       115  POPC      H6Y           -32.9183538022       -2.5530923319      -12.0897584444  MEMB      109             0.0000000000
     14527       115  POPC      C37           -32.1265218499       -1.3323600825      -10.5100484008  MEMB      109             0.0000000000
     14528       115  POPC      H7X           -32.6073651370       -2.0181066854       -9.7811721010  MEMB      109             0.0000000000
     14529       115  POPC      H7Y           -32.8170269718       -0.4747926460      -10.6594126169  MEMB      109             0.0000000000
     14530       115  POPC      C38           -30.8165264772       -0.8506531173       -9.8836459649  MEMB      109             0.0000000000
     14531       115  POPC      H8X           -30.3078863650       -0.2132701716      -10.6282972447  MEMB      109             0.0000000000
     14532       115  POPC      H8Y           -30.1606596600       -1.7241317834       -9.6708851049  MEMB      109             0.0000000000
     14533       115  POPC      C39           -30.9880526670       -0.0102277575       -8.6093929691  MEMB      109             0.0000000000
     14534       115  POPC      H9X           -31.4957808868        0.9481105736       -8.8635423050  MEMB      109             0.0000000000
     14535       115  POPC      H9Y           -29.9685861176        0.2468245846       -8.2494684242  MEMB      109             0.0000000000
     14536       115  POPC      C310          -31.7770601429       -0.7179233085       -7.4963433815  MEMB      109             0.0000000000
     14537       115  POPC      H10X          -31.4762075323       -1.7875332010       -7.4437968279  MEMB      109             0.0000000000
     14538       115  POPC      H10Y          -32.8570417338       -0.6774967099       -7.7657069641  MEMB      109             0.0000000000
     14539       115  POPC      C311          -31.5846853817       -0.0811979806       -6.1123938671  MEMB      109             0.0000000000
     14540       115  POPC      H11X          -32.3681777352       -0.4547442123       -5.4149503091  MEMB      109             0.0000000000
     14541       115  POPC      H11Y          -31.7250351502        1.0188261801       -6.2117692640  MEMB      109             0.0000000000
     14542       115  POPC      C312          -30.2024083329       -0.3723650562       -5.5061286020  MEMB      109             0.0000000000
     14543       115  POPC      H12X          -29.4296079682       -0.1516212456       -6.2757022115  MEMB      109             0.0000000000
     14544       115  POPC      H12Y          -30.1126077697       -1.4527642157       -5.2573455274  MEMB      109             0.0000000000
     14545       115  POPC      C313          -29.8917648807        0.4889104252       -4.2720077254  MEMB      109             0.0000000000
     14546       115  POPC      H13X          -30.2163032282       -0.0330295451       -3.3453932769  MEMB      109             0.0000000000
     14547       115  POPC      H13Y          -30.4825169841        1.4305310327       -4.3453072215  MEMB      109             0.0000000000
     14548       115  POPC      C314          -28.4058384615        0.8748095808       -4.2030926307  MEMB      109             0.0000000000
     14549       115  POPC      H14X          -28.1023496956        1.2267040140       -5.2177591768  MEMB      109             0.0000000000
     14550       115  POPC      H14Y          -27.7876482401       -0.0156890963       -3.9678281625  MEMB      109             0.0000000000
     14551       115  POPC      C315          -28.1065040047        2.0186041029       -3.2243137688  MEMB      109             0.0000000000
     14552       115  POPC      H15X          -28.7572037064        2.8727325710       -3.4991004932  MEMB      109             0.0000000000
     14553       115  POPC      H15Y          -27.0522268262        2.3440875284       -3.3708965819  MEMB      109             0.0000000000
     14554       115  POPC      C316          -28.3232414058        1.7120142643       -1.7438741491  MEMB      109             0.0000000000
     14555       115  POPC      H16X          -27.5338191227        1.0304130598       -1.3656618251  MEMB      109             0.0000000000
     14556       115  POPC      H16Y          -29.3167800765        1.2474576404       -1.5742374289  MEMB      109             0.0000000000
     14557       115  POPC      H16Z          -28.2767312539        2.6513514855       -1.1537960518  MEMB      109             0.0000000000
     14558       116  POPC      N              -5.8027562402       27.7791546586      -19.5842310657  MEMB      110             0.0000000000
     14559       116  POPC      C12            -5.1967347090       28.4781882690      -18.3720971981  MEMB      110             0.0000000000
     14560       116  POPC      H12A           -4.9620057248       27.7668818667      -17.5838563350  MEMB      110             0.0000000000
     14561       116  POPC      H12B           -5.9549967191       29.1271266107      -17.9216637957  MEMB      110             0.0000000000
     14562       116  POPC      C13            -6.8180284048       26.7584091469      -19.2043029225  MEMB      110             0.0000000000
     14563       116  POPC      H13A           -7.4389158966       27.0981141007      -18.3723914819  MEMB      110             0.0000000000
     14564       116  POPC      H13B           -7.4551762972       26.5083522899      -20.0445950286  MEMB      110             0.0000000000
     14565       116  POPC      H13C           -6.3529639331       25.8574114039      -18.8252218473  MEMB      110             0.0000000000
     14566       116  POPC      C14            -6.4725394699       28.8024966287      -20.4458153586  MEMB      110             0.0000000000
     14567       116  POPC      H14A           -6.8948784152       28.3799518550      -21.3451802021  MEMB      110             0.0000000000
     14568       116  POPC      H14B           -7.2720169244       29.3335286082      -19.9382848447  MEMB      110             0.0000000000
     14569       116  POPC      H14C           -5.7390628589       29.5771771118      -20.6862294664  MEMB      110             0.0000000000
     14570       116  POPC      C15            -4.7305820222       27.1208947177      -20.3903423289  MEMB      110             0.0000000000
     14571       116  POPC      H15A           -3.9834173457       27.8742313671      -20.6294771833  MEMB      110             0.0000000000
     14572       116  POPC      H15B           -5.1550316193       26.7227585164      -21.3027701947  MEMB      110             0.0000000000
     14573       116  POPC      H15C           -4.2493040535       26.3231815647      -19.8387710723  MEMB      110             0.0000000000
     14574       116  POPC      C11            -3.9699143172       29.4131976396      -18.5699102693  MEMB      110             0.0000000000
     14575       116  POPC      H11A           -3.1034459330       28.8315410748      -18.9523622183  MEMB      110             0.0000000000
     14576       116  POPC      H11B           -3.6539535997       29.8151862982      -17.5776170856  MEMB      110             0.0000000000
     14577       116  POPC      P              -5.1091504239       31.7393617736      -19.0372898376  MEMB      110             0.0000000000
     14578       116  POPC      O13            -5.8899590884       32.0883748371      -20.2500512182  MEMB      110             0.0000000000
     14579       116  POPC      O14            -4.2617690935       32.7691960570      -18.4190976378  MEMB      110             0.0000000000
     14580       116  POPC      O12            -4.2434857119       30.4795152709      -19.4658460275  MEMB      110             0.0000000000
     14581       116  POPC      O11            -6.0790055192       31.0712669898      -17.9737000565  MEMB      110             0.0000000000
     14582       116  POPC      C1             -7.5025369489       31.1795745413      -18.0309571665  MEMB      110             0.0000000000
     14583       116  POPC      HA             -7.9335677140       30.4171733424      -18.7114527919  MEMB      110             0.0000000000
     14584       116  POPC      HB             -7.8190585516       32.1676597147      -18.4393892065  MEMB      110             0.0000000000
     14585       116  POPC      C2             -8.1561287240       30.9716994750      -16.6227726301  MEMB      110             0.0000000000
     14586       116  POPC      HS             -9.2242922278       31.2806133157      -16.7027566993  MEMB      110             0.0000000000
     14587       116  POPC      O21            -7.5194390882       31.7437691946      -15.5947318716  MEMB      110             0.0000000000
     14588       116  POPC      C21            -7.5801758513       33.0528339177      -15.7008845954  MEMB      110             0.0000000000
     14589       116  POPC      O22            -7.9334584873       33.6872246124      -16.6734339451  MEMB      110             0.0000000000
     14590       116  POPC      C22            -7.1165345192       33.6092542763      -14.3367041369  MEMB      110             0.0000000000
     14591       116  POPC      H2R            -6.2368537996       34.2397814564      -14.5352874664  MEMB      110             0.0000000000
     14592       116  POPC      H2S            -6.7630762914       32.7667185487      -13.7080325290  MEMB      110             0.0000000000
     14593       116  POPC      C3             -8.1534810813       29.4710078790      -16.1775741875  MEMB      110             0.0000000000
     14594       116  POPC      HX             -7.6513840636       28.8605626145      -16.9612721101  MEMB      110             0.0000000000
     14595       116  POPC      HY             -9.2141682178       29.1324710801      -16.1491538891  MEMB      110             0.0000000000
     14596       116  POPC      O31            -7.6006320371       29.2882649825      -14.8501722087  MEMB      110             0.0000000000
     14597       116  POPC      C31            -6.4001507019       28.7337596478      -14.7829442492  MEMB      110             0.0000000000
     14598       116  POPC      O32            -5.8041270715       28.1901816311      -15.6950174468  MEMB      110             0.0000000000
     14599       116  POPC      C32            -5.8773048392       28.8629413858      -13.3566777113  MEMB      110             0.0000000000
     14600       116  POPC      H2X            -6.5489872035       28.2651372704      -12.7125761340  MEMB      110             0.0000000000
     14601       116  POPC      H2Y            -5.9631583017       29.9314145130      -13.0719702711  MEMB      110             0.0000000000
     14602       116  POPC      C23            -8.1436163780       34.4550571480      -13.5366872531  MEMB      110             0.0000000000
     14603       116  POPC      H3R            -8.9988324384       34.7772773098      -14.1719652223  MEMB      110             0.0000000000
     14604       116  POPC      H3S            -7.6173778753       35.3814652719      -13.2084647029  MEMB      110             0.0000000000
     14605       116  POPC      C24            -8.6326401703       33.7397516954      -12.2715682284  MEMB      110             0.0000000000
     14606       116  POPC      H4R            -7.8301581091       33.0579699959      -11.9171860046  MEMB      110             0.0000000000
     14607       116  POPC      H4S            -9.5143015798       33.1089899186      -12.5237190745  MEMB      110             0.0000000000
     14608       116  POPC      C25            -8.9748294247       34.6925604527      -11.1154678708  MEMB      110             0.0000000000
     14609       116  POPC      H5R            -9.8694821274       35.2655838934      -11.4302124726  MEMB      110             0.0000000000
     14610       116  POPC      H5S            -8.1530248295       35.4187239831      -10.9390891011  MEMB      110             0.0000000000
     14611       116  POPC      C26            -9.2879924380       33.9301076774       -9.8187031114  MEMB      110             0.0000000000
     14612       116  POPC      H6R            -9.9248830926       33.0673350962      -10.1031663753  MEMB      110             0.0000000000
     14613       116  POPC      H6S            -9.8784101100       34.5802108176       -9.1363389464  MEMB      110             0.0000000000
     14614       116  POPC      C27            -8.0311280350       33.4477728977       -9.0826886483  MEMB      110             0.0000000000
     14615       116  POPC      H7R            -7.6154331556       34.3148492261       -8.5191167357  MEMB      110             0.0000000000
     14616       116  POPC      H7S            -7.2669589993       33.1332977341       -9.8238911623  MEMB      110             0.0000000000
     14617       116  POPC      C28            -8.2617885679       32.2783523652       -8.1086541856  MEMB      110             0.0000000000
     14618       116  POPC      H8R            -9.1957414744       32.4751152919       -7.5499678824  MEMB      110             0.0000000000
     14619       116  POPC      H8S            -7.4340329086       32.2993548022       -7.3632342177  MEMB      110             0.0000000000
     14620       116  POPC      C29            -8.3205262087       30.9322824954       -8.7940007118  MEMB      110             0.0000000000
     14621       116  POPC      H91            -8.5759074508       30.9523721532       -9.8673683785  MEMB      110             0.0000000000
     14622       116  POPC      C210           -8.0949699910       29.7493895118       -8.1905008630  MEMB      110             0.0000000000
     14623       116  POPC      H101           -8.1377671167       28.8198046939       -8.7788364689  MEMB      110             0.0000000000
     14624       116  POPC      C211           -7.7505886342       29.5783830035       -6.7322803647  MEMB      110             0.0000000000
     14625       116  POPC      H11R           -8.6722981030       29.7288020372       -6.1292117642  MEMB      110             0.0000000000
     14626       116  POPC      H11S           -7.0474965354       30.3655524561       -6.4028410462  MEMB      110             0.0000000000
     14627       116  POPC      C212           -7.1458741111       28.2055711707       -6.3559832821  MEMB      110             0.0000000000
     14628       116  POPC      H12R           -7.5965913061       27.4047073745       -6.9812623760  MEMB      110             0.0000000000
     14629       116  POPC      H12S           -7.4127576078       27.9772897352       -5.2994271210  MEMB      110             0.0000000000
     14630       116  POPC      C213           -5.6126872296       28.1398358563       -6.4523174333  MEMB      110             0.0000000000
     14631       116  POPC      H13R           -5.1572988899       28.7489744289       -5.6451576979  MEMB      110             0.0000000000
     14632       116  POPC      H13S           -5.2946855187       28.5576463722       -7.4282057613  MEMB      110             0.0000000000
     14633       116  POPC      C214           -5.0759749959       26.7112002815       -6.3399656680  MEMB      110             0.0000000000
     14634       116  POPC      H14R           -5.2884045189       26.2294252550       -7.3183673909  MEMB      110             0.0000000000
     14635       116  POPC      H14S           -5.6278016514       26.1851946841       -5.5341995270  MEMB      110             0.0000000000
     14636       116  POPC      C215           -3.5675062526       26.5738828039       -6.1155513003  MEMB      110             0.0000000000
     14637       116  POPC      H15R           -3.0632770589       27.2986894833       -6.7891183982  MEMB      110             0.0000000000
     14638       116  POPC      H15S           -3.2441519665       25.5532118958       -6.4250897123  MEMB      110             0.0000000000
     14639       116  POPC      C216           -3.1082762305       26.7909292673       -4.6677496555  MEMB      110             0.0000000000
     14640       116  POPC      H16R           -3.5788453376       27.7016231478       -4.2405760268  MEMB      110             0.0000000000
     14641       116  POPC      H16S           -2.0095576504       26.9506583687       -4.6971953371  MEMB      110             0.0000000000
     14642       116  POPC      C217           -3.3312769195       25.5899104355       -3.7442715380  MEMB      110             0.0000000000
     14643       116  POPC      H17R           -2.9702516491       24.6735732508       -4.2649129334  MEMB      110             0.0000000000
     14644       116  POPC      H17S           -4.4175085656       25.4714318641       -3.5497153424  MEMB      110             0.0000000000
     14645       116  POPC      C218           -2.5928162966       25.7120901008       -2.4122308302  MEMB      110             0.0000000000
     14646       116  POPC      H18R           -1.5318740284       25.9879922171       -2.5841654864  MEMB      110             0.0000000000
     14647       116  POPC      H18S           -3.0577154635       26.4870824594       -1.7679196177  MEMB      110             0.0000000000
     14648       116  POPC      H18T           -2.6084071343       24.7471322544       -1.8666764803  MEMB      110             0.0000000000
     14649       116  POPC      C33            -4.4169709014       28.3723759666      -13.2058346422  MEMB      110             0.0000000000
     14650       116  POPC      H3X            -3.7463122167       29.0559124781      -13.7762702586  MEMB      110             0.0000000000
     14651       116  POPC      H3Y            -4.3063181257       27.3624419586      -13.6500966184  MEMB      110             0.0000000000
     14652       116  POPC      C34            -3.9539202097       28.3003614603      -11.7471623967  MEMB      110             0.0000000000
     14653       116  POPC      H4X            -2.9067913539       27.9253565640      -11.7064628551  MEMB      110             0.0000000000
     14654       116  POPC      H4Y            -4.5962165550       27.5805530945      -11.1887757762  MEMB      110             0.0000000000
     14655       116  POPC      C35            -4.0326985656       29.6577818081      -11.0485086197  MEMB      110             0.0000000000
     14656       116  POPC      H5X            -5.0838292864       30.0266153192      -11.0958857261  MEMB      110             0.0000000000
     14657       116  POPC      H5Y            -3.3977151024       30.3993610632      -11.5847817205  MEMB      110             0.0000000000
     14658       116  POPC      C36            -3.6334844824       29.5909523991       -9.5745961645  MEMB      110             0.0000000000
     14659       116  POPC      H6X            -2.5301533232       29.6912803658       -9.4808127900  MEMB      110             0.0000000000
     14660       116  POPC      H6Y            -3.9162080668       28.6046410590       -9.1436850922  MEMB      110             0.0000000000
     14661       116  POPC      C37            -4.3317575253       30.6935582014       -8.7776187200  MEMB      110             0.0000000000
     14662       116  POPC      H7X            -5.4101153436       30.4504058788       -8.6667902072  MEMB      110             0.0000000000
     14663       116  POPC      H7Y            -4.2766765259       31.6405906291       -9.3584193356  MEMB      110             0.0000000000
     14664       116  POPC      C38            -3.7174660890       30.9254104151       -7.3953743207  MEMB      110             0.0000000000
     14665       116  POPC      H8X            -2.6536064477       31.1994236778       -7.5315651229  MEMB      110             0.0000000000
     14666       116  POPC      H8Y            -3.7161719605       29.9967395904       -6.7910973192  MEMB      110             0.0000000000
     14667       116  POPC      C39            -4.4785639901       32.0216068667       -6.6466136064  MEMB      110             0.0000000000
     14668       116  POPC      H9X            -5.4198570509       31.5867646622       -6.2611276981  MEMB      110             0.0000000000
     14669       116  POPC      H9Y            -4.7791920740       32.8229410758       -7.3470789442  MEMB      110             0.0000000000
     14670       116  POPC      C310           -3.6989258946       32.6608535545       -5.5011197290  MEMB      110             0.0000000000
     14671       116  POPC      H10X           -3.3091420898       33.6420626301       -5.8509153106  MEMB      110             0.0000000000
     14672       116  POPC      H10Y           -2.8229153642       32.0334930318       -5.2266208645  MEMB      110             0.0000000000
     14673       116  POPC      C311           -4.5716991779       32.8915179337       -4.2675519549  MEMB      110             0.0000000000
     14674       116  POPC      H11X           -5.5486848699       33.3339457080       -4.5529126233  MEMB      110             0.0000000000
     14675       116  POPC      H11Y           -4.0411686723       33.6347750513       -3.6313086416  MEMB      110             0.0000000000
     14676       116  POPC      C312           -4.7346568528       31.6303145492       -3.4099686823  MEMB      110             0.0000000000
     14677       116  POPC      H12X           -4.7076873075       31.9740947127       -2.3617000922  MEMB      110             0.0000000000
     14678       116  POPC      H12Y           -3.8502946758       30.9742361303       -3.5437071836  MEMB      110             0.0000000000
     14679       116  POPC      C313           -6.0059797431       30.7887305623       -3.6270212743  MEMB      110             0.0000000000
     14680       116  POPC      H13X           -5.9926381088       29.9628887680       -2.8825155359  MEMB      110             0.0000000000
     14681       116  POPC      H13Y           -5.9499799810       30.3123525382       -4.6211238496  MEMB      110             0.0000000000
     14682       116  POPC      C314           -7.3371416758       31.5512135774       -3.5219769248  MEMB      110             0.0000000000
     14683       116  POPC      H14X           -7.8023000487       31.6316800501       -4.5297678489  MEMB      110             0.0000000000
     14684       116  POPC      H14Y           -7.1188836968       32.5837070514       -3.1815132035  MEMB      110             0.0000000000
     14685       116  POPC      C315           -8.3414565969       30.9234750573       -2.5435424575  MEMB      110             0.0000000000
     14686       116  POPC      H15X           -9.2342934387       31.5861831179       -2.4686981243  MEMB      110             0.0000000000
     14687       116  POPC      H15Y           -7.8844985657       30.8808263072       -1.5319412857  MEMB      110             0.0000000000
     14688       116  POPC      C316           -8.7931758134       29.5161877372       -2.9274595023  MEMB      110             0.0000000000
     14689       116  POPC      H16X           -9.4287035415       29.5646574765       -3.8348387692  MEMB      110             0.0000000000
     14690       116  POPC      H16Y           -9.3847255317       29.0742946771       -2.0995123168  MEMB      110             0.0000000000
     14691       116  POPC      H16Z           -7.9310163654       28.8447700830       -3.1227695285  MEMB      110             0.0000000000
     14692       117  POPS      N               3.3632985423      -33.5265659666      -21.1525699917  MEMB      111             0.0000000000
     14693       117  POPS      HN1             3.0501070494      -34.1783073308      -21.9063081236  MEMB      111             0.0000000000
     14694       117  POPS      HN2             4.2146503181      -33.0091037426      -21.4542485498  MEMB      111             0.0000000000
     14695       117  POPS      HN3             3.6225472857      -34.0610627358      -20.2941478268  MEMB      111             0.0000000000
     14696       117  POPS      C12             2.3351813124      -32.5109443256      -20.8076142996  MEMB      111             0.0000000000
     14697       117  POPS      H12A            1.3689625404      -32.9777140325      -20.7466979655  MEMB      111             0.0000000000
     14698       117  POPS      C13             2.4013286009      -31.3867586634      -21.8625989554  MEMB      111             0.0000000000
     14699       117  POPS      O13A            3.5438701932      -30.8720667304      -22.0116579023  MEMB      111             0.0000000000
     14700       117  POPS      O13B            1.3962411632      -31.0617029289      -22.5607026890  MEMB      111             0.0000000000
     14701       117  POPS      C11             2.6807392946      -31.9060867880      -19.4274562512  MEMB      111             0.0000000000
     14702       117  POPS      H11A            3.5252706302      -31.1968446451      -19.5377951054  MEMB      111             0.0000000000
     14703       117  POPS      H11B            3.0458928682      -32.7102202071      -18.7458791038  MEMB      111             0.0000000000
     14704       117  POPS      P               0.6920851626      -31.7663637258      -17.7190300598  MEMB      111             0.0000000000
     14705       117  POPS      O13             1.5161204072      -32.8032227365      -17.0451384465  MEMB      111             0.0000000000
     14706       117  POPS      O14            -0.6362519098      -32.1374735513      -18.2367771542  MEMB      111             0.0000000000
     14707       117  POPS      O12             1.5561057010      -31.2003892332      -18.9070522845  MEMB      111             0.0000000000
     14708       117  POPS      O11             0.6289100320      -30.4943057624      -16.7806662086  MEMB      111             0.0000000000
     14709       117  POPS      C1              0.1294255702      -29.2577865034      -17.2981248860  MEMB      111             0.0000000000
     14710       117  POPS      HA             -0.9163706004      -29.3773124889      -17.6759708988  MEMB      111             0.0000000000
     14711       117  POPS      HB              0.7723084402      -28.9164033723      -18.1463351346  MEMB      111             0.0000000000
     14712       117  POPS      C2              0.1397756938      -28.1156779399      -16.2258063586  MEMB      111             0.0000000000
     14713       117  POPS      HS              0.5465987206      -27.2008236331      -16.7151752971  MEMB      111             0.0000000000
     14714       117  POPS      O21             0.9203019322      -28.4885092290      -15.0627936680  MEMB      111             0.0000000000
     14715       117  POPS      C21             2.2342373278      -28.4595576197      -15.3134505023  MEMB      111             0.0000000000
     14716       117  POPS      O22             2.7640903802      -27.7801382628      -16.1749002437  MEMB      111             0.0000000000
     14717       117  POPS      C22             3.0268346592      -29.2971748138      -14.3057218496  MEMB      111             0.0000000000
     14718       117  POPS      H2R             2.6738795370      -29.0522897283      -13.2842906279  MEMB      111             0.0000000000
     14719       117  POPS      H2S             4.0832828236      -28.9692457746      -14.4095605515  MEMB      111             0.0000000000
     14720       117  POPS      C3             -1.3064464888      -27.7071676254      -15.7746288583  MEMB      111             0.0000000000
     14721       117  POPS      HX             -1.8439516449      -27.3956951520      -16.7000260704  MEMB      111             0.0000000000
     14722       117  POPS      HY             -1.2018876878      -26.8223948649      -15.0997271223  MEMB      111             0.0000000000
     14723       117  POPS      O31            -2.0441611325      -28.7581231957      -15.1200090740  MEMB      111             0.0000000000
     14724       117  POPS      C31            -3.2987008926      -28.4018417655      -14.7592408710  MEMB      111             0.0000000000
     14725       117  POPS      O32            -3.7758281168      -27.3342585305      -15.1006745101  MEMB      111             0.0000000000
     14726       117  POPS      C32            -3.9724081365      -29.5802614406      -13.9513110473  MEMB      111             0.0000000000
     14727       117  POPS      H2X            -3.1460648968      -30.3004415661      -13.9233351823  MEMB      111             0.0000000000
     14728       117  POPS      H2Y            -4.7710796513      -30.0241823415      -14.5290656718  MEMB      111             0.0000000000
     14729       117  POPS      C23             2.9278425251      -30.8179340466      -14.5694771478  MEMB      111             0.0000000000
     14730       117  POPS      H3R             2.8433769861      -30.9998963155      -15.6655111719  MEMB      111             0.0000000000
     14731       117  POPS      H3S             1.9977954828      -31.2111215251      -14.1152202577  MEMB      111             0.0000000000
     14732       117  POPS      C24             4.1066791240      -31.6678025113      -14.0690927727  MEMB      111             0.0000000000
     14733       117  POPS      H4R             4.9502280502      -31.5304620870      -14.7739611989  MEMB      111             0.0000000000
     14734       117  POPS      H4S             3.8042165647      -32.7378520941      -14.1276992384  MEMB      111             0.0000000000
     14735       117  POPS      C25             4.6025227090      -31.3407667017      -12.6553259514  MEMB      111             0.0000000000
     14736       117  POPS      H5R             4.7055473001      -30.2408690118      -12.5445180106  MEMB      111             0.0000000000
     14737       117  POPS      H5S             5.6189854947      -31.7626227137      -12.5018119836  MEMB      111             0.0000000000
     14738       117  POPS      C26             3.7019631762      -31.9192120636      -11.5606070593  MEMB      111             0.0000000000
     14739       117  POPS      H6R             3.8583137703      -33.0209997806      -11.5149775905  MEMB      111             0.0000000000
     14740       117  POPS      H6S             2.6367908952      -31.7447407869      -11.8302964120  MEMB      111             0.0000000000
     14741       117  POPS      C27             4.0160746704      -31.2850065304      -10.2011755730  MEMB      111             0.0000000000
     14742       117  POPS      H7R             5.1222127636      -31.1989056074      -10.1113619580  MEMB      111             0.0000000000
     14743       117  POPS      H7S             3.6770785563      -31.9475523693       -9.3729428219  MEMB      111             0.0000000000
     14744       117  POPS      C28             3.3880943098      -29.8862986130      -10.0638005826  MEMB      111             0.0000000000
     14745       117  POPS      H8R             3.4616705860      -29.3481730744      -11.0320784792  MEMB      111             0.0000000000
     14746       117  POPS      H8S             3.9626353546      -29.2974641058       -9.3224828911  MEMB      111             0.0000000000
     14747       117  POPS      C29             1.9553537768      -30.0261798328       -9.6458739067  MEMB      111             0.0000000000
     14748       117  POPS      H91             1.4562211250      -30.9174987777      -10.0521387170  MEMB      111             0.0000000000
     14749       117  POPS      C210            1.2563992811      -29.2108091306       -8.8439523362  MEMB      111             0.0000000000
     14750       117  POPS      H101            0.2390594448      -29.5157944126       -8.5670298274  MEMB      111             0.0000000000
     14751       117  POPS      C211            1.7099698985      -27.9529457636       -8.1601443575  MEMB      111             0.0000000000
     14752       117  POPS      H11R            1.1046173506      -27.0900608156       -8.5158557393  MEMB      111             0.0000000000
     14753       117  POPS      H11S            2.7753416246      -27.7098461693       -8.3663860352  MEMB      111             0.0000000000
     14754       117  POPS      C212            1.5097395988      -28.1203210047       -6.6485500616  MEMB      111             0.0000000000
     14755       117  POPS      H12R            0.4860628535      -28.4917978296       -6.4148321182  MEMB      111             0.0000000000
     14756       117  POPS      H12S            1.6235788692      -27.1255566142       -6.1610656238  MEMB      111             0.0000000000
     14757       117  POPS      C213            2.5269547356      -29.0814604965       -6.0452538596  MEMB      111             0.0000000000
     14758       117  POPS      H13R            3.5339635107      -28.6390032378       -6.2094101552  MEMB      111             0.0000000000
     14759       117  POPS      H13S            2.5008667276      -30.0646188556       -6.5662857572  MEMB      111             0.0000000000
     14760       117  POPS      C214            2.3262957364      -29.3012752421       -4.5486533509  MEMB      111             0.0000000000
     14761       117  POPS      H14R            1.4130052889      -29.9069079289       -4.3619765676  MEMB      111             0.0000000000
     14762       117  POPS      H14S            2.1870231329      -28.3141359397       -4.0610024699  MEMB      111             0.0000000000
     14763       117  POPS      C215            3.5570577399      -29.9940430744       -3.9685846286  MEMB      111             0.0000000000
     14764       117  POPS      H15R            4.4410658688      -29.4406010318       -4.3371369903  MEMB      111             0.0000000000
     14765       117  POPS      H15S            3.6053755476      -31.0315409145       -4.3699365202  MEMB      111             0.0000000000
     14766       117  POPS      C216            3.6201117933      -29.9911981843       -2.4437711086  MEMB      111             0.0000000000
     14767       117  POPS      H16R            2.5847794808      -30.0787379752       -2.0447466952  MEMB      111             0.0000000000
     14768       117  POPS      H16S            4.0326551409      -29.0179430133       -2.1106056554  MEMB      111             0.0000000000
     14769       117  POPS      C217            4.4785012652      -31.1321915331       -1.8853664348  MEMB      111             0.0000000000
     14770       117  POPS      H17R            5.5523630625      -30.9524518256       -2.1156589437  MEMB      111             0.0000000000
     14771       117  POPS      H17S            4.1899626204      -32.0710056778       -2.4108317089  MEMB      111             0.0000000000
     14772       117  POPS      C218            4.2809678954      -31.3373452640       -0.3830695704  MEMB      111             0.0000000000
     14773       117  POPS      H18R            3.2208475188      -31.1572274950       -0.1064110822  MEMB      111             0.0000000000
     14774       117  POPS      H18S            4.9205674207      -30.6464102499        0.2047256136  MEMB      111             0.0000000000
     14775       117  POPS      H18T            4.5237241170      -32.3809027109       -0.0980322152  MEMB      111             0.0000000000
     14776       117  POPS      C33            -4.4724217866      -29.7576413616      -12.4865130338  MEMB      111             0.0000000000
     14777       117  POPS      H3X            -5.5018549275      -29.3921496112      -12.3220871556  MEMB      111             0.0000000000
     14778       117  POPS      H3Y            -3.7592121390      -29.2058705130      -11.8818498787  MEMB      111             0.0000000000
     14779       117  POPS      C34            -4.3051520357      -31.2757956749      -12.1787698916  MEMB      111             0.0000000000
     14780       117  POPS      H4X            -3.2322749487      -31.4692916426      -12.0524479169  MEMB      111             0.0000000000
     14781       117  POPS      H4Y            -4.6143636149      -31.8048013958      -13.1100443777  MEMB      111             0.0000000000
     14782       117  POPS      C35            -4.9776241613      -32.0841059588      -11.0581196864  MEMB      111             0.0000000000
     14783       117  POPS      H5X            -4.5635372101      -33.1189867111      -11.1525011635  MEMB      111             0.0000000000
     14784       117  POPS      H5Y            -6.0559012219      -32.1567271271      -11.3102705913  MEMB      111             0.0000000000
     14785       117  POPS      C36            -4.8619024751      -31.7222619533       -9.5622707062  MEMB      111             0.0000000000
     14786       117  POPS      H6X            -5.3693373391      -32.5573416270       -9.0351932836  MEMB      111             0.0000000000
     14787       117  POPS      H6Y            -5.4993587037      -30.8333735010       -9.4038793133  MEMB      111             0.0000000000
     14788       117  POPS      C37            -3.5083053585      -31.5222839559       -8.8309427057  MEMB      111             0.0000000000
     14789       117  POPS      H7X            -3.7190841483      -31.5619701987       -7.7388981272  MEMB      111             0.0000000000
     14790       117  POPS      H7Y            -3.1363370756      -30.4974018641       -9.0020383161  MEMB      111             0.0000000000
     14791       117  POPS      C38            -2.3225192719      -32.4590979344       -9.1209358993  MEMB      111             0.0000000000
     14792       117  POPS      H8X            -2.0946976205      -32.4190873287      -10.2093550504  MEMB      111             0.0000000000
     14793       117  POPS      H8Y            -2.5531771584      -33.5103662731       -8.8912107855  MEMB      111             0.0000000000
     14794       117  POPS      C39            -1.0716975795      -31.9968396342       -8.3388876910  MEMB      111             0.0000000000
     14795       117  POPS      H9X            -1.2586394902      -30.9631131397       -7.9677217232  MEMB      111             0.0000000000
     14796       117  POPS      H9Y            -0.2156145229      -31.9434203372       -9.0450307636  MEMB      111             0.0000000000
     14797       117  POPS      C310           -0.6251048544      -32.8609866694       -7.1488317910  MEMB      111             0.0000000000
     14798       117  POPS      H10X            0.3420061582      -33.3492432555       -7.4067405851  MEMB      111             0.0000000000
     14799       117  POPS      H10Y           -1.3507608841      -33.6729049434       -6.9555506367  MEMB      111             0.0000000000
     14800       117  POPS      C311           -0.4384171945      -32.0571942577       -5.8503960686  MEMB      111             0.0000000000
     14801       117  POPS      H11X           -1.4300957228      -31.7125092510       -5.4875933134  MEMB      111             0.0000000000
     14802       117  POPS      H11Y            0.1712455532      -31.1487296830       -6.0540208771  MEMB      111             0.0000000000
     14803       117  POPS      C312            0.2561824713      -32.8739237541       -4.7512483651  MEMB      111             0.0000000000
     14804       117  POPS      H12X            1.3486918656      -32.8676490816       -4.9665246187  MEMB      111             0.0000000000
     14805       117  POPS      H12Y           -0.0790106737      -33.9304501496       -4.7971960636  MEMB      111             0.0000000000
     14806       117  POPS      C313            0.0101575325      -32.3363740929       -3.3327488176  MEMB      111             0.0000000000
     14807       117  POPS      H13X           -0.8759733125      -32.8278222680       -2.8766650610  MEMB      111             0.0000000000
     14808       117  POPS      H13Y           -0.2172088596      -31.2485063201       -3.4077286511  MEMB      111             0.0000000000
     14809       117  POPS      C314            1.2323783553      -32.4655109034       -2.4120704287  MEMB      111             0.0000000000
     14810       117  POPS      H14X            1.0714361523      -31.7888127057       -1.5413367760  MEMB      111             0.0000000000
     14811       117  POPS      H14Y            2.1197016463      -32.0997156903       -2.9626404351  MEMB      111             0.0000000000
     14812       117  POPS      C315            1.5304366440      -33.8725943409       -1.8806869112  MEMB      111             0.0000000000
     14813       117  POPS      H15X            0.5669273096      -34.3842525685       -1.6749192665  MEMB      111             0.0000000000
     14814       117  POPS      H15Y            2.0596079006      -33.7701333719       -0.9055668047  MEMB      111             0.0000000000
     14815       117  POPS      C316            2.4312173903      -34.7156388677       -2.7895314319  MEMB      111             0.0000000000
     14816       117  POPS      H16X            3.4077294777      -34.2119727870       -2.9473150667  MEMB      111             0.0000000000
     14817       117  POPS      H16Y            1.9559933538      -34.8728342658       -3.7789626315  MEMB      111             0.0000000000
     14818       117  POPS      H16Z            2.6258578070      -35.7111902500       -2.3364340465  MEMB      111             0.0000000000
     14819       118  POPC      N             -19.9226223850       23.0002313066      -20.4219117452  MEMB      112             0.0000000000
     14820       118  POPC      C12           -20.1720460610       21.4972874157      -20.3205461569  MEMB      112             0.0000000000
     14821       118  POPC      H12A          -19.6944260235       20.9740974605      -21.1386745687  MEMB      112             0.0000000000
     14822       118  POPC      H12B          -21.2503376062       21.3279158190      -20.4041203355  MEMB      112             0.0000000000
     14823       118  POPC      C13           -18.4474930983       23.2711901262      -20.4274778433  MEMB      112             0.0000000000
     14824       118  POPC      H13A          -17.9949628707       22.8692240887      -21.3263820648  MEMB      112             0.0000000000
     14825       118  POPC      H13B          -18.2192192750       24.3330233852      -20.3815962883  MEMB      112             0.0000000000
     14826       118  POPC      H13C          -17.9896040303       22.7944754100      -19.5702593087  MEMB      112             0.0000000000
     14827       118  POPC      C14           -20.5407927181       23.5564277563      -21.6689693268  MEMB      112             0.0000000000
     14828       118  POPC      H14A          -21.5876596146       23.2882771986      -21.7447883396  MEMB      112             0.0000000000
     14829       118  POPC      H14B          -20.4966161727       24.6445696053      -21.6657048076  MEMB      112             0.0000000000
     14830       118  POPC      H14C          -20.0249194060       23.2247405946      -22.5638103762  MEMB      112             0.0000000000
     14831       118  POPC      C15           -20.5809721348       23.6928751558      -19.2689388057  MEMB      112             0.0000000000
     14832       118  POPC      H15A          -20.2585882211       23.2609743292      -18.3193000024  MEMB      112             0.0000000000
     14833       118  POPC      H15B          -21.6547155362       23.5045606148      -19.2817601699  MEMB      112             0.0000000000
     14834       118  POPC      H15C          -20.4298146561       24.7591783034      -19.2808393498  MEMB      112             0.0000000000
     14835       118  POPC      C11           -19.7705452379       20.7930363082      -18.9957656790  MEMB      112             0.0000000000
     14836       118  POPC      H11A          -18.7016478781       20.9751763850      -18.7649319946  MEMB      112             0.0000000000
     14837       118  POPC      H11B          -19.8767433797       19.6861455663      -19.1153157062  MEMB      112             0.0000000000
     14838       118  POPC      P             -22.0867888534       20.8200583594      -17.8164753117  MEMB      112             0.0000000000
     14839       118  POPC      O13           -22.7158176499       21.1137414654      -19.1255415775  MEMB      112             0.0000000000
     14840       118  POPC      O14           -22.6848994639       21.4307767478      -16.6116488611  MEMB      112             0.0000000000
     14841       118  POPC      O12           -20.5598594952       21.2656881181      -17.9051821762  MEMB      112             0.0000000000
     14842       118  POPC      O11           -21.9739176498       19.2785176781      -17.6041225526  MEMB      112             0.0000000000
     14843       118  POPC      C1            -21.0129165471       18.7956815627      -16.6681762406  MEMB      112             0.0000000000
     14844       118  POPC      HA            -20.2540612067       19.5509667530      -16.3440602045  MEMB      112             0.0000000000
     14845       118  POPC      HB            -20.4554375057       17.9629758421      -17.1575616621  MEMB      112             0.0000000000
     14846       118  POPC      C2            -21.6510603743       18.2369190536      -15.3740509650  MEMB      112             0.0000000000
     14847       118  POPC      HS            -22.2970472459       17.4042208403      -15.6714757465  MEMB      112             0.0000000000
     14848       118  POPC      O21           -22.3875245944       19.2172865146      -14.6093415746  MEMB      112             0.0000000000
     14849       118  POPC      C21           -23.6875641081       19.2733915825      -14.8435141832  MEMB      112             0.0000000000
     14850       118  POPC      O22           -24.3397317711       18.4856637554      -15.5076850760  MEMB      112             0.0000000000
     14851       118  POPC      C22           -24.3212288066       20.4281544088      -14.0445439428  MEMB      112             0.0000000000
     14852       118  POPC      H2R           -25.3524311679       20.1000148172      -13.8408764899  MEMB      112             0.0000000000
     14853       118  POPC      H2S           -24.3475752062       21.3164342939      -14.7087664279  MEMB      112             0.0000000000
     14854       118  POPC      C3            -20.4938260934       17.6900229299      -14.5248577084  MEMB      112             0.0000000000
     14855       118  POPC      HX            -19.8024416165       17.1506400030      -15.1995946122  MEMB      112             0.0000000000
     14856       118  POPC      HY            -20.8290640356       16.9178379037      -13.8145166900  MEMB      112             0.0000000000
     14857       118  POPC      O31           -19.8551002941       18.8287736522      -13.9200581402  MEMB      112             0.0000000000
     14858       118  POPC      C31           -19.8573062178       18.8376109389      -12.6112844846  MEMB      112             0.0000000000
     14859       118  POPC      O32           -19.8826620038       17.8587552870      -11.8852147509  MEMB      112             0.0000000000
     14860       118  POPC      C32           -19.8740083908       20.2768769003      -12.0885695341  MEMB      112             0.0000000000
     14861       118  POPC      H2X           -19.0971324867       20.3470273082      -11.3095556276  MEMB      112             0.0000000000
     14862       118  POPC      H2Y           -20.8545852025       20.3924229533      -11.5920727447  MEMB      112             0.0000000000
     14863       118  POPC      C23           -23.6811272215       20.8022353934      -12.6837353619  MEMB      112             0.0000000000
     14864       118  POPC      H3R           -24.3143763689       21.5890887258      -12.2167583572  MEMB      112             0.0000000000
     14865       118  POPC      H3S           -22.6738196984       21.2421021134      -12.8417328052  MEMB      112             0.0000000000
     14866       118  POPC      C24           -23.5950129208       19.6082490050      -11.7270374685  MEMB      112             0.0000000000
     14867       118  POPC      H4R           -22.7508128460       18.9902694719      -12.0960273674  MEMB      112             0.0000000000
     14868       118  POPC      H4S           -24.5216470055       18.9951940221      -11.7861645456  MEMB      112             0.0000000000
     14869       118  POPC      C25           -23.3286078644       19.9779723587      -10.2608913613  MEMB      112             0.0000000000
     14870       118  POPC      H5R           -24.2744742581       20.3245517665       -9.7884537058  MEMB      112             0.0000000000
     14871       118  POPC      H5S           -22.6153420852       20.8278718602      -10.2165567851  MEMB      112             0.0000000000
     14872       118  POPC      C26           -22.7263088787       18.8035497977       -9.4703414787  MEMB      112             0.0000000000
     14873       118  POPC      H6R           -21.6825684668       19.0391976978       -9.1701305385  MEMB      112             0.0000000000
     14874       118  POPC      H6S           -22.6576665748       17.9204347875      -10.1391491490  MEMB      112             0.0000000000
     14875       118  POPC      C27           -23.5637745403       18.3810655075       -8.2555611556  MEMB      112             0.0000000000
     14876       118  POPC      H7R           -23.3843818110       17.2996440809       -8.0502715283  MEMB      112             0.0000000000
     14877       118  POPC      H7S           -24.6372017271       18.4900084693       -8.5238293169  MEMB      112             0.0000000000
     14878       118  POPC      C28           -23.2734859370       19.1850332104       -6.9763410417  MEMB      112             0.0000000000
     14879       118  POPC      H8R           -24.0285137755       18.9015536922       -6.2077095716  MEMB      112             0.0000000000
     14880       118  POPC      H8S           -23.4285113692       20.2669052487       -7.1848938050  MEMB      112             0.0000000000
     14881       118  POPC      C29           -21.8793907619       18.9559867794       -6.4506219606  MEMB      112             0.0000000000
     14882       118  POPC      H91           -21.1169121234       19.6527892158       -6.8222604921  MEMB      112             0.0000000000
     14883       118  POPC      C210          -21.4913244370       17.9628534434       -5.6377900508  MEMB      112             0.0000000000
     14884       118  POPC      H101          -20.4451257886       17.9331421518       -5.2969067671  MEMB      112             0.0000000000
     14885       118  POPC      C211          -22.3796982357       16.8774205128       -5.0951668481  MEMB      112             0.0000000000
     14886       118  POPC      H11R          -23.2561856208       16.6980590664       -5.7584704450  MEMB      112             0.0000000000
     14887       118  POPC      H11S          -22.7778393206       17.1807200877       -4.1060229961  MEMB      112             0.0000000000
     14888       118  POPC      C212          -21.6176375613       15.5491740261       -4.9448527499  MEMB      112             0.0000000000
     14889       118  POPC      H12R          -21.0123666575       15.3494413857       -5.8580007786  MEMB      112             0.0000000000
     14890       118  POPC      H12S          -22.3587807317       14.7214581350       -4.8613263623  MEMB      112             0.0000000000
     14891       118  POPC      C213          -20.7181031535       15.5058038223       -3.6993113475  MEMB      112             0.0000000000
     14892       118  POPC      H13R          -20.1063491910       16.4314127076       -3.6533927583  MEMB      112             0.0000000000
     14893       118  POPC      H13S          -20.0087978602       14.6554515099       -3.7844759638  MEMB      112             0.0000000000
     14894       118  POPC      C214          -21.5262713581       15.3401116516       -2.4027031280  MEMB      112             0.0000000000
     14895       118  POPC      H14R          -22.2005110377       14.4598420609       -2.5062441584  MEMB      112             0.0000000000
     14896       118  POPC      H14S          -22.1687466748       16.2370116130       -2.2599196127  MEMB      112             0.0000000000
     14897       118  POPC      C215          -20.6763045576       15.1453398359       -1.1407078679  MEMB      112             0.0000000000
     14898       118  POPC      H15R          -20.2338763598       14.1241307805       -1.1492213459  MEMB      112             0.0000000000
     14899       118  POPC      H15S          -21.3520850591       15.2056748241       -0.2599563267  MEMB      112             0.0000000000
     14900       118  POPC      C216          -19.5270143630       16.1483682410       -0.9892846695  MEMB      112             0.0000000000
     14901       118  POPC      H16R          -18.8024667317       15.9862787238       -1.8185486153  MEMB      112             0.0000000000
     14902       118  POPC      H16S          -18.9900713457       15.9255373180       -0.0419119886  MEMB      112             0.0000000000
     14903       118  POPC      C217          -19.9462098184       17.6202787517       -0.9799417767  MEMB      112             0.0000000000
     14904       118  POPC      H17R          -20.5515585707       17.8191393765       -0.0675724030  MEMB      112             0.0000000000
     14905       118  POPC      H17S          -20.5915237057       17.8423643495       -1.8595348430  MEMB      112             0.0000000000
     14906       118  POPC      C218          -18.7330648963       18.5492694517       -1.0247793543  MEMB      112             0.0000000000
     14907       118  POPC      H18R          -18.0448605586       18.3351002662       -0.1792267623  MEMB      112             0.0000000000
     14908       118  POPC      H18S          -19.0465242173       19.6110370545       -0.9673208899  MEMB      112             0.0000000000
     14909       118  POPC      H18T          -18.1736743326       18.4016874611       -1.9741352191  MEMB      112             0.0000000000
     14910       118  POPC      C33           -19.6991053142       21.4133588357      -13.1368884293  MEMB      112             0.0000000000
     14911       118  POPC      H3X           -20.6771743112       21.6524029588      -13.6079098169  MEMB      112             0.0000000000
     14912       118  POPC      H3Y           -19.0466902766       21.0660827931      -13.9686493306  MEMB      112             0.0000000000
     14913       118  POPC      C34           -19.0263348145       22.6916577394      -12.5869468650  MEMB      112             0.0000000000
     14914       118  POPC      H4X           -18.7727068077       23.3108353146      -13.4753741440  MEMB      112             0.0000000000
     14915       118  POPC      H4Y           -18.0765468723       22.4281363186      -12.0749736681  MEMB      112             0.0000000000
     14916       118  POPC      C35           -19.8698615265       23.5623357440      -11.6413285882  MEMB      112             0.0000000000
     14917       118  POPC      H5X           -20.8276641995       23.8267039003      -12.1445411504  MEMB      112             0.0000000000
     14918       118  POPC      H5Y           -19.3176651535       24.5112077257      -11.4408504127  MEMB      112             0.0000000000
     14919       118  POPC      C36           -20.1689053193       22.8827342413      -10.3010347191  MEMB      112             0.0000000000
     14920       118  POPC      H6X           -19.2370930402       22.4412969543       -9.8839205783  MEMB      112             0.0000000000
     14921       118  POPC      H6Y           -20.8917360097       22.0620257272      -10.4732789345  MEMB      112             0.0000000000
     14922       118  POPC      C37           -20.8063133582       23.8109709077       -9.2685436001  MEMB      112             0.0000000000
     14923       118  POPC      H7X           -21.6031909583       24.4074618655       -9.7688365221  MEMB      112             0.0000000000
     14924       118  POPC      H7Y           -20.0362697302       24.5194147910       -8.8957147907  MEMB      112             0.0000000000
     14925       118  POPC      C38           -21.4373196125       23.0339032948       -8.1044800951  MEMB      112             0.0000000000
     14926       118  POPC      H8X           -22.2417109879       22.3795911871       -8.5097183057  MEMB      112             0.0000000000
     14927       118  POPC      H8Y           -21.9459712659       23.7427579550       -7.4238121305  MEMB      112             0.0000000000
     14928       118  POPC      C39           -20.4669870062       22.1460775439       -7.3033579074  MEMB      112             0.0000000000
     14929       118  POPC      H9X           -20.2078346060       21.2593077584       -7.9243778802  MEMB      112             0.0000000000
     14930       118  POPC      H9Y           -21.0186994296       21.7864880092       -6.4065292700  MEMB      112             0.0000000000
     14931       118  POPC      C310          -19.1509754379       22.7977480230       -6.8497051773  MEMB      112             0.0000000000
     14932       118  POPC      H10X          -19.3623613163       23.7312580985       -6.2876625335  MEMB      112             0.0000000000
     14933       118  POPC      H10Y          -18.5628085435       23.0925873712       -7.7470381101  MEMB      112             0.0000000000
     14934       118  POPC      C311          -18.2856273301       21.8462504952       -5.9952917210  MEMB      112             0.0000000000
     14935       118  POPC      H11X          -17.3238677847       22.3607280400       -5.7766723784  MEMB      112             0.0000000000
     14936       118  POPC      H11Y          -18.0489979892       20.9411571477       -6.5980930090  MEMB      112             0.0000000000
     14937       118  POPC      C312          -18.9198148525       21.4045135530       -4.6579835026  MEMB      112             0.0000000000
     14938       118  POPC      H12X          -18.1968678990       20.7583630322       -4.1117283138  MEMB      112             0.0000000000
     14939       118  POPC      H12Y          -19.8265318535       20.7935948870       -4.8562532493  MEMB      112             0.0000000000
     14940       118  POPC      C313          -19.2923022235       22.5966623210       -3.7665312036  MEMB      112             0.0000000000
     14941       118  POPC      H13X          -20.0144911359       23.2390270384       -4.3138397579  MEMB      112             0.0000000000
     14942       118  POPC      H13Y          -18.3735288101       23.1932398083       -3.5840418926  MEMB      112             0.0000000000
     14943       118  POPC      C314          -19.9204500233       22.2547345402       -2.4093140735  MEMB      112             0.0000000000
     14944       118  POPC      H14X          -19.9768370095       23.2064113068       -1.8304443205  MEMB      112             0.0000000000
     14945       118  POPC      H14Y          -19.2651714398       21.5647959858       -1.8400943230  MEMB      112             0.0000000000
     14946       118  POPC      C315          -21.3410325095       21.6918539038       -2.5233072646  MEMB      112             0.0000000000
     14947       118  POPC      H15X          -21.2982618744       20.6105317164       -2.7883735967  MEMB      112             0.0000000000
     14948       118  POPC      H15Y          -21.8603714350       22.2158365476       -3.3595674491  MEMB      112             0.0000000000
     14949       118  POPC      C316          -22.1659158779       21.8954072202       -1.2503786350  MEMB      112             0.0000000000
     14950       118  POPC      H16X          -21.7506156256       21.3115094818       -0.4055525665  MEMB      112             0.0000000000
     14951       118  POPC      H16Y          -23.2153025116       21.5731465896       -1.4105996402  MEMB      112             0.0000000000
     14952       118  POPC      H16Z          -22.1784540008       22.9685389819       -0.9626783523  MEMB      112             0.0000000000
     14953       119  POPC      N             -30.1234875003       10.3986922127      -20.7727714724  MEMB      113             0.0000000000
     14954       119  POPC      C12           -28.7442899337       10.9955317408      -20.4793512405  MEMB      113             0.0000000000
     14955       119  POPC      H12A          -28.8206380100       12.0764692638      -20.3609642966  MEMB      113             0.0000000000
     14956       119  POPC      H12B          -28.1107406171       10.8291460141      -21.3440418640  MEMB      113             0.0000000000
     14957       119  POPC      C13           -30.9267050701       10.3793210751      -19.5101356804  MEMB      113             0.0000000000
     14958       119  POPC      H13A          -31.0306839781       11.3599565709      -19.0807490815  MEMB      113             0.0000000000
     14959       119  POPC      H13B          -31.8866244993        9.9046363672      -19.6584316991  MEMB      113             0.0000000000
     14960       119  POPC      H13C          -30.3808254238        9.7822163967      -18.7635811332  MEMB      113             0.0000000000
     14961       119  POPC      C14           -30.8465251848       11.1463044055      -21.8527341555  MEMB      113             0.0000000000
     14962       119  POPC      H14A          -30.3258428249       11.0669835505      -22.8030614191  MEMB      113             0.0000000000
     14963       119  POPC      H14B          -31.8532667438       10.7628351930      -22.0089378405  MEMB      113             0.0000000000
     14964       119  POPC      H14C          -30.9134411287       12.2002491397      -21.6272742389  MEMB      113             0.0000000000
     14965       119  POPC      C15           -29.9496025198        8.9852779872      -21.2189724535  MEMB      113             0.0000000000
     14966       119  POPC      H15A          -29.4718456066        8.4324345062      -20.4105930324  MEMB      113             0.0000000000
     14967       119  POPC      H15B          -29.3025304661        8.9095066999      -22.0806109015  MEMB      113             0.0000000000
     14968       119  POPC      H15C          -30.8757486977        8.4743598934      -21.4327002039  MEMB      113             0.0000000000
     14969       119  POPC      C11           -27.9370139183       10.4082834572      -19.2777086947  MEMB      113             0.0000000000
     14970       119  POPC      H11A          -28.5241816592       10.4694070902      -18.3309176005  MEMB      113             0.0000000000
     14971       119  POPC      H11B          -27.0482487505       11.0662550064      -19.1290573945  MEMB      113             0.0000000000
     14972       119  POPC      P             -27.8327742125        7.8171668503      -18.6780570445  MEMB      113             0.0000000000
     14973       119  POPC      O13           -27.1894182461        7.8719454553      -17.3587747852  MEMB      113             0.0000000000
     14974       119  POPC      O14           -27.7035656742        6.5850725220      -19.4990246153  MEMB      113             0.0000000000
     14975       119  POPC      O12           -27.4684113104        9.0868419838      -19.5558055229  MEMB      113             0.0000000000
     14976       119  POPC      O11           -29.3965452882        8.0984799570      -18.4805858947  MEMB      113             0.0000000000
     14977       119  POPC      C1            -30.0403838075        7.3952490001      -17.4186160952  MEMB      113             0.0000000000
     14978       119  POPC      HA            -29.3598206145        7.2667817058      -16.5392441103  MEMB      113             0.0000000000
     14979       119  POPC      HB            -30.3332691303        6.3956968978      -17.7947475622  MEMB      113             0.0000000000
     14980       119  POPC      C2            -31.3300801039        8.0699404948      -16.8581278229  MEMB      113             0.0000000000
     14981       119  POPC      HS            -32.0944107016        8.0344746959      -17.6668859188  MEMB      113             0.0000000000
     14982       119  POPC      O21           -31.0754967522        9.4323307721      -16.4699643856  MEMB      113             0.0000000000
     14983       119  POPC      C21           -32.1517714865       10.1593177169      -16.2036901933  MEMB      113             0.0000000000
     14984       119  POPC      O22           -33.2963869172        9.8687365353      -16.5139911129  MEMB      113             0.0000000000
     14985       119  POPC      C22           -31.7063499024       11.4584513061      -15.5384186751  MEMB      113             0.0000000000
     14986       119  POPC      H2R           -31.8041184081       12.2851095614      -16.2681781470  MEMB      113             0.0000000000
     14987       119  POPC      H2S           -30.6285380644       11.3466771153      -15.2778031714  MEMB      113             0.0000000000
     14988       119  POPC      C3            -31.8165429503        7.2276636771      -15.6443642089  MEMB      113             0.0000000000
     14989       119  POPC      HX            -32.0911964395        6.2145478255      -16.0082870632  MEMB      113             0.0000000000
     14990       119  POPC      HY            -32.7250854293        7.7045695539      -15.2100308405  MEMB      113             0.0000000000
     14991       119  POPC      O31           -30.7315808816        7.0949919864      -14.7074181598  MEMB      113             0.0000000000
     14992       119  POPC      C31           -31.0758972544        7.0548435969      -13.4324445422  MEMB      113             0.0000000000
     14993       119  POPC      O32           -32.2247178951        7.0032409240      -13.0233446697  MEMB      113             0.0000000000
     14994       119  POPC      C32           -29.8308026878        7.0562067407      -12.5555955790  MEMB      113             0.0000000000
     14995       119  POPC      H2X           -28.9766891739        6.6506320281      -13.1385847407  MEMB      113             0.0000000000
     14996       119  POPC      H2Y           -30.0174349882        6.3850190978      -11.6942637550  MEMB      113             0.0000000000
     14997       119  POPC      C23           -32.4704488743       11.7955734740      -14.2411140982  MEMB      113             0.0000000000
     14998       119  POPC      H3R           -32.5139464537       10.9022416203      -13.5748279036  MEMB      113             0.0000000000
     14999       119  POPC      H3S           -33.5146087850       12.1141567783      -14.4592580064  MEMB      113             0.0000000000
     15000       119  POPC      C24           -31.7247306618       12.9049751291      -13.4978475900  MEMB      113             0.0000000000
     15001       119  POPC      H4R           -31.7120848274       13.8167145067      -14.1339834065  MEMB      113             0.0000000000
     15002       119  POPC      H4S           -30.6661514026       12.5983976464      -13.3526173713  MEMB      113             0.0000000000
     15003       119  POPC      C25           -32.2859302301       13.2653226867      -12.1206356961  MEMB      113             0.0000000000
     15004       119  POPC      H5R           -33.3535559961       13.5754074610      -12.1917956311  MEMB      113             0.0000000000
     15005       119  POPC      H5S           -31.6910928380       14.1444367497      -11.7797887273  MEMB      113             0.0000000000
     15006       119  POPC      C26           -32.1208793412       12.1602645197      -11.0703474398  MEMB      113             0.0000000000
     15007       119  POPC      H6R           -31.4024358596       11.3928122374      -11.4378601752  MEMB      113             0.0000000000
     15008       119  POPC      H6S           -33.1016735461       11.6556845651      -10.9306504297  MEMB      113             0.0000000000
     15009       119  POPC      C27           -31.5891626095       12.7196968248       -9.7381629958  MEMB      113             0.0000000000
     15010       119  POPC      H7R           -32.0126700918       13.7374631563       -9.5716528194  MEMB      113             0.0000000000
     15011       119  POPC      H7S           -30.4861728631       12.8416065393       -9.8341561791  MEMB      113             0.0000000000
     15012       119  POPC      C28           -31.9116890913       11.8280015417       -8.5279921996  MEMB      113             0.0000000000
     15013       119  POPC      H8R           -31.3376444059       12.1949696354       -7.6476221530  MEMB      113             0.0000000000
     15014       119  POPC      H8S           -31.5554688997       10.7957314926       -8.7491332316  MEMB      113             0.0000000000
     15015       119  POPC      C29           -33.3881954266       11.8778257120       -8.2229433536  MEMB      113             0.0000000000
     15016       119  POPC      H91           -33.8498688083       12.8712380864       -8.3381594305  MEMB      113             0.0000000000
     15017       119  POPC      C210          -34.1600543015       10.8488611969       -7.8379778994  MEMB      113             0.0000000000
     15018       119  POPC      H101          -35.2221355171       11.0376585679       -7.6150468068  MEMB      113             0.0000000000
     15019       119  POPC      C211          -33.7119758956        9.4253229014       -7.6247087981  MEMB      113             0.0000000000
     15020       119  POPC      H11R          -32.9123123630        9.1346406939       -8.3425805893  MEMB      113             0.0000000000
     15021       119  POPC      H11S          -34.5658763465        8.7376835732       -7.8090774374  MEMB      113             0.0000000000
     15022       119  POPC      C212          -33.1853818021        9.1899296886       -6.1934921402  MEMB      113             0.0000000000
     15023       119  POPC      H12R          -32.1831089670        9.6636293948       -6.0913156813  MEMB      113             0.0000000000
     15024       119  POPC      H12S          -33.0549632677        8.0954055485       -6.0362626193  MEMB      113             0.0000000000
     15025       119  POPC      C213          -34.1076587754        9.7502200766       -5.0963450695  MEMB      113             0.0000000000
     15026       119  POPC      H13R          -35.1446383844        9.4272498214       -5.3025258312  MEMB      113             0.0000000000
     15027       119  POPC      H13S          -34.1145498260       10.8598470377       -5.1470539908  MEMB      113             0.0000000000
     15028       119  POPC      C214          -33.7267224416        9.3068278642       -3.6772796003  MEMB      113             0.0000000000
     15029       119  POPC      H14R          -33.6968939930        8.1952600153       -3.6326520187  MEMB      113             0.0000000000
     15030       119  POPC      H14S          -34.5221811912        9.6480533273       -2.9762465429  MEMB      113             0.0000000000
     15031       119  POPC      C215          -32.3823909917        9.8743313109       -3.2026108486  MEMB      113             0.0000000000
     15032       119  POPC      H15R          -31.5717807635        9.4399946972       -3.8181622114  MEMB      113             0.0000000000
     15033       119  POPC      H15S          -32.2211454929        9.5630310267       -2.1453326659  MEMB      113             0.0000000000
     15034       119  POPC      C216          -32.3088095310       11.3993100588       -3.3196483075  MEMB      113             0.0000000000
     15035       119  POPC      H16R          -33.2902669944       11.7966575842       -2.9668787006  MEMB      113             0.0000000000
     15036       119  POPC      H16S          -32.1839413744       11.7095858663       -4.3800628293  MEMB      113             0.0000000000
     15037       119  POPC      C217          -31.2215784202       12.0475415023       -2.4577585994  MEMB      113             0.0000000000
     15038       119  POPC      H17R          -31.1009650065       11.4734388033       -1.5144888553  MEMB      113             0.0000000000
     15039       119  POPC      H17S          -31.6226927951       13.0568931628       -2.2048062251  MEMB      113             0.0000000000
     15040       119  POPC      C218          -29.8483910165       12.2494781579       -3.0991334519  MEMB      113             0.0000000000
     15041       119  POPC      H18R          -29.9391032894       12.8470177301       -4.0257627186  MEMB      113             0.0000000000
     15042       119  POPC      H18S          -29.3769401237       11.2880327662       -3.3669679376  MEMB      113             0.0000000000
     15043       119  POPC      H18T          -29.1718080764       12.7836080817       -2.3960336416  MEMB      113             0.0000000000
     15044       119  POPC      C33           -29.5213166533        8.4855371546      -12.0754633788  MEMB      113             0.0000000000
     15045       119  POPC      H3X           -30.3400825075        8.8649291934      -11.4208031761  MEMB      113             0.0000000000
     15046       119  POPC      H3Y           -29.4702982715        9.1565266857      -12.9688246015  MEMB      113             0.0000000000
     15047       119  POPC      C34           -28.1769758738        8.5927603132      -11.3490949771  MEMB      113             0.0000000000
     15048       119  POPC      H4X           -27.8421460093        9.6511455280      -11.4554589994  MEMB      113             0.0000000000
     15049       119  POPC      H4Y           -27.4109395562        7.9536752250      -11.8439474003  MEMB      113             0.0000000000
     15050       119  POPC      C35           -28.2791772897        8.2702827900       -9.8559775422  MEMB      113             0.0000000000
     15051       119  POPC      H5X           -28.0242125740        7.2005631066       -9.6948652595  MEMB      113             0.0000000000
     15052       119  POPC      H5Y           -29.3320495883        8.4170306354       -9.5245002672  MEMB      113             0.0000000000
     15053       119  POPC      C36           -27.3753325032        9.1620601683       -8.9950234797  MEMB      113             0.0000000000
     15054       119  POPC      H6X           -27.5202617292       10.2296511672       -9.2744452385  MEMB      113             0.0000000000
     15055       119  POPC      H6Y           -26.3166099546        8.8943025041       -9.2149463380  MEMB      113             0.0000000000
     15056       119  POPC      C37           -27.6412718467        8.9892453060       -7.4928853087  MEMB      113             0.0000000000
     15057       119  POPC      H7X           -26.7839000389        9.4104795148       -6.9230150168  MEMB      113             0.0000000000
     15058       119  POPC      H7Y           -27.6747736316        7.9033530266       -7.2718956592  MEMB      113             0.0000000000
     15059       119  POPC      C38           -28.9353986979        9.6682619138       -7.0070428491  MEMB      113             0.0000000000
     15060       119  POPC      H8X           -29.8177150753        9.2312488889       -7.5220943194  MEMB      113             0.0000000000
     15061       119  POPC      H8Y           -28.8876842562       10.7473857001       -7.2774017808  MEMB      113             0.0000000000
     15062       119  POPC      C39           -29.1437075376        9.5579279635       -5.4836536350  MEMB      113             0.0000000000
     15063       119  POPC      H9X           -29.9549838002       10.2523016127       -5.1784076891  MEMB      113             0.0000000000
     15064       119  POPC      H9Y           -28.2001251861        9.8956702952       -5.0054446938  MEMB      113             0.0000000000
     15065       119  POPC      C310          -29.5090005531        8.1341420504       -5.0297640147  MEMB      113             0.0000000000
     15066       119  POPC      H10X          -28.8130199541        7.4514693484       -5.5514920000  MEMB      113             0.0000000000
     15067       119  POPC      H10Y          -30.5231869858        7.8767433729       -5.4076460729  MEMB      113             0.0000000000
     15068       119  POPC      C311          -29.4298388488        7.8103186599       -3.5168091020  MEMB      113             0.0000000000
     15069       119  POPC      H11X          -29.1617210318        6.7320320343       -3.4345993257  MEMB      113             0.0000000000
     15070       119  POPC      H11Y          -30.4292806119        7.9115448556       -3.0485947973  MEMB      113             0.0000000000
     15071       119  POPC      C312          -28.4177621597        8.6250713597       -2.6946674721  MEMB      113             0.0000000000
     15072       119  POPC      H12X          -28.8728762476        9.5867446204       -2.3844474860  MEMB      113             0.0000000000
     15073       119  POPC      H12Y          -27.5285255742        8.8409556429       -3.3292419852  MEMB      113             0.0000000000
     15074       119  POPC      C313          -27.8929232125        7.8997781310       -1.4497855566  MEMB      113             0.0000000000
     15075       119  POPC      H13X          -27.0570964363        8.4894076151       -1.0101753535  MEMB      113             0.0000000000
     15076       119  POPC      H13Y          -27.4789297065        6.9288094070       -1.7863398497  MEMB      113             0.0000000000
     15077       119  POPC      C314          -28.9201737302        7.6077465683       -0.3512709889  MEMB      113             0.0000000000
     15078       119  POPC      H14X          -29.7832427318        7.0685486595       -0.7879481964  MEMB      113             0.0000000000
     15079       119  POPC      H14Y          -29.2994955015        8.5592208501        0.0754786946  MEMB      113             0.0000000000
     15080       119  POPC      C315          -28.2892708284        6.7376230877        0.7444757321  MEMB      113             0.0000000000
     15081       119  POPC      H15X          -27.4320707188        7.2932863088        1.1887185799  MEMB      113             0.0000000000
     15082       119  POPC      H15Y          -27.8796413667        5.8253968553        0.2531458398  MEMB      113             0.0000000000
     15083       119  POPC      C316          -29.2341640525        6.2949071737        1.8590612292  MEMB      113             0.0000000000
     15084       119  POPC      H16X          -30.0478119868        5.6560828012        1.4551073319  MEMB      113             0.0000000000
     15085       119  POPC      H16Y          -29.7008636093        7.1680714339        2.3563462413  MEMB      113             0.0000000000
     15086       119  POPC      H16Z          -28.6810382014        5.7104643251        2.6254941915  MEMB      113             0.0000000000
     15087       120  POPS      N             -20.8389336268      -25.8096965510      -18.9770434565  MEMB      114             0.0000000000
     15088       120  POPS      HN1           -20.4733120329      -25.1823182733      -18.2446351666  MEMB      114             0.0000000000
     15089       120  POPS      HN2           -21.7843090803      -25.5094241132      -19.3164131167  MEMB      114             0.0000000000
     15090       120  POPS      HN3           -20.8751692118      -26.7610467528      -18.5559165772  MEMB      114             0.0000000000
     15091       120  POPS      C12           -19.8448041911      -25.8249498237      -20.1090983548  MEMB      114             0.0000000000
     15092       120  POPS      H12A          -19.3627721120      -24.8610114855      -20.1573728343  MEMB      114             0.0000000000
     15093       120  POPS      C13           -20.4589949070      -26.0889674222      -21.4964887187  MEMB      114             0.0000000000
     15094       120  POPS      O13A          -21.6730106438      -26.4080982226      -21.5737304769  MEMB      114             0.0000000000
     15095       120  POPS      O13B          -19.7182123574      -26.0347888321      -22.5082074953  MEMB      114             0.0000000000
     15096       120  POPS      C11           -18.8105404605      -26.9524967913      -19.8458044464  MEMB      114             0.0000000000
     15097       120  POPS      H11A          -18.0311863936      -26.8774443003      -20.6446178096  MEMB      114             0.0000000000
     15098       120  POPS      H11B          -19.3245745733      -27.9423884723      -19.9486688740  MEMB      114             0.0000000000
     15099       120  POPS      P             -17.2188981204      -27.9874898547      -18.1030318652  MEMB      114             0.0000000000
     15100       120  POPS      O13           -16.3923169355      -27.4752719617      -17.0041764762  MEMB      114             0.0000000000
     15101       120  POPS      O14           -16.5567928132      -28.5584977181      -19.2942580761  MEMB      114             0.0000000000
     15102       120  POPS      O12           -18.2109503013      -26.8207685661      -18.5512972105  MEMB      114             0.0000000000
     15103       120  POPS      O11           -18.2463663070      -29.0573744839      -17.5235358973  MEMB      114             0.0000000000
     15104       120  POPS      C1            -17.9798336964      -29.7511335341      -16.2899857213  MEMB      114             0.0000000000
     15105       120  POPS      HA            -17.0966092058      -29.3521566028      -15.7325522202  MEMB      114             0.0000000000
     15106       120  POPS      HB            -17.7573865267      -30.8147122986      -16.5205031108  MEMB      114             0.0000000000
     15107       120  POPS      C2            -19.1732903693      -29.7225083342      -15.2811197964  MEMB      114             0.0000000000
     15108       120  POPS      HS            -20.0957677593      -30.0616278405      -15.8056847219  MEMB      114             0.0000000000
     15109       120  POPS      O21           -19.3297932997      -28.4175403750      -14.7203598243  MEMB      114             0.0000000000
     15110       120  POPS      C21           -19.9771188096      -27.5366004358      -15.4257521526  MEMB      114             0.0000000000
     15111       120  POPS      O22           -20.6803163280      -27.7307329837      -16.4066615726  MEMB      114             0.0000000000
     15112       120  POPS      C22           -19.7696395190      -26.1677301788      -14.7905311138  MEMB      114             0.0000000000
     15113       120  POPS      H2R           -20.4330629025      -26.0911838191      -13.9045139632  MEMB      114             0.0000000000
     15114       120  POPS      H2S           -20.1008428572      -25.4088460538      -15.5283727607  MEMB      114             0.0000000000
     15115       120  POPS      C3            -18.9076315300      -30.6794254976      -14.0840879674  MEMB      114             0.0000000000
     15116       120  POPS      HX            -18.8709551679      -31.7192094805      -14.4793848947  MEMB      114             0.0000000000
     15117       120  POPS      HY            -19.7680291805      -30.6329907135      -13.3772704561  MEMB      114             0.0000000000
     15118       120  POPS      O31           -17.6431831473      -30.3808522441      -13.4527782736  MEMB      114             0.0000000000
     15119       120  POPS      C31           -17.6711585502      -29.6303794943      -12.3499051024  MEMB      114             0.0000000000
     15120       120  POPS      O32           -18.6662597471      -29.2703885186      -11.7471896534  MEMB      114             0.0000000000
     15121       120  POPS      C32           -16.2076997213      -29.4565079555      -11.8926681232  MEMB      114             0.0000000000
     15122       120  POPS      H2X           -15.7183980377      -28.7432389475      -12.5870399701  MEMB      114             0.0000000000
     15123       120  POPS      H2Y           -15.7112316671      -30.4415755412      -12.0269118366  MEMB      114             0.0000000000
     15124       120  POPS      C23           -18.3086494336      -25.8866050956      -14.3600583039  MEMB      114             0.0000000000
     15125       120  POPS      H3R           -17.5872239079      -26.2636402526      -15.1192591272  MEMB      114             0.0000000000
     15126       120  POPS      H3S           -18.0925849580      -26.4128240510      -13.4027533099  MEMB      114             0.0000000000
     15127       120  POPS      C24           -18.1185505295      -24.3769369873      -14.2085897205  MEMB      114             0.0000000000
     15128       120  POPS      H4R           -18.9899008420      -24.0204716670      -13.6176839665  MEMB      114             0.0000000000
     15129       120  POPS      H4S           -18.1834295621      -23.9204711166      -15.2215794542  MEMB      114             0.0000000000
     15130       120  POPS      C25           -16.8134862799      -23.9101398524      -13.5480120324  MEMB      114             0.0000000000
     15131       120  POPS      H5R           -16.7143838994      -22.8103122380      -13.6889400744  MEMB      114             0.0000000000
     15132       120  POPS      H5S           -15.9543412381      -24.3878628271      -14.0705161119  MEMB      114             0.0000000000
     15133       120  POPS      C26           -16.7279448266      -24.2075226619      -12.0458056197  MEMB      114             0.0000000000
     15134       120  POPS      H6R           -15.7351147014      -23.8661194746      -11.6759893170  MEMB      114             0.0000000000
     15135       120  POPS      H6S           -16.7748961656      -25.3079089103      -11.9086639150  MEMB      114             0.0000000000
     15136       120  POPS      C27           -17.8228785849      -23.5448856305      -11.1928973653  MEMB      114             0.0000000000
     15137       120  POPS      H7R           -18.8085858069      -23.9975311830      -11.4421852406  MEMB      114             0.0000000000
     15138       120  POPS      H7S           -17.8738964856      -22.4602498836      -11.4294380726  MEMB      114             0.0000000000
     15139       120  POPS      C28           -17.5452794974      -23.7426828762       -9.6966464789  MEMB      114             0.0000000000
     15140       120  POPS      H8R           -16.5662641897      -23.2624285408       -9.4737693208  MEMB      114             0.0000000000
     15141       120  POPS      H8S           -17.4069981019      -24.8364886541       -9.5390685474  MEMB      114             0.0000000000
     15142       120  POPS      C29           -18.5809282462      -23.1894991036       -8.7543823102  MEMB      114             0.0000000000
     15143       120  POPS      H91           -18.7453861503      -22.1016719384       -8.8168445465  MEMB      114             0.0000000000
     15144       120  POPS      C210          -19.2920633370      -23.9165096107       -7.8760487659  MEMB      114             0.0000000000
     15145       120  POPS      H101          -19.9633722191      -23.3964792035       -7.1800564292  MEMB      114             0.0000000000
     15146       120  POPS      C211          -19.1913048336      -25.4085781955       -7.6757890811  MEMB      114             0.0000000000
     15147       120  POPS      H11R          -18.1775743365      -25.6977012423       -7.3307629005  MEMB      114             0.0000000000
     15148       120  POPS      H11S          -19.3688418254      -25.9431619078       -8.6384362664  MEMB      114             0.0000000000
     15149       120  POPS      C212          -20.2113879510      -25.9200214256       -6.6435217535  MEMB      114             0.0000000000
     15150       120  POPS      H12R          -21.2337489779      -25.8104051707       -7.0712901677  MEMB      114             0.0000000000
     15151       120  POPS      H12S          -20.1657579200      -25.3029856641       -5.7166784267  MEMB      114             0.0000000000
     15152       120  POPS      C213          -19.9853549101      -27.3883182652       -6.2409611969  MEMB      114             0.0000000000
     15153       120  POPS      H13R          -19.2502421935      -27.4120386488       -5.4076045869  MEMB      114             0.0000000000
     15154       120  POPS      H13S          -19.5320685108      -27.9484012688       -7.0888937811  MEMB      114             0.0000000000
     15155       120  POPS      C214          -21.2923430662      -28.0861915539       -5.8294351597  MEMB      114             0.0000000000
     15156       120  POPS      H14R          -21.7719585551      -28.4889473243       -6.7508754296  MEMB      114             0.0000000000
     15157       120  POPS      H14S          -21.9962403039      -27.3336430418       -5.4116717571  MEMB      114             0.0000000000
     15158       120  POPS      C215          -21.1242653312      -29.2186975280       -4.7983656500  MEMB      114             0.0000000000
     15159       120  POPS      H15R          -20.4509489321      -29.9991928860       -5.2158402261  MEMB      114             0.0000000000
     15160       120  POPS      H15S          -22.1122149228      -29.6973579033       -4.6340381215  MEMB      114             0.0000000000
     15161       120  POPS      C216          -20.6001235949      -28.7836504648       -3.4152954538  MEMB      114             0.0000000000
     15162       120  POPS      H16R          -19.5151921648      -28.5896109418       -3.5267990617  MEMB      114             0.0000000000
     15163       120  POPS      H16S          -20.7415776196      -29.6120368476       -2.6902888474  MEMB      114             0.0000000000
     15164       120  POPS      C217          -21.1953833467      -27.4772945566       -2.8817734672  MEMB      114             0.0000000000
     15165       120  POPS      H17R          -22.2891335890      -27.4562261583       -3.0818948537  MEMB      114             0.0000000000
     15166       120  POPS      H17S          -20.6898996990      -26.6992193215       -3.4964070582  MEMB      114             0.0000000000
     15167       120  POPS      C218          -20.9425029008      -27.0945392583       -1.4190970673  MEMB      114             0.0000000000
     15168       120  POPS      H18R          -20.3436391220      -27.8592391559       -0.8970309978  MEMB      114             0.0000000000
     15169       120  POPS      H18S          -21.9031159564      -26.9644920146       -0.8772343097  MEMB      114             0.0000000000
     15170       120  POPS      H18T          -20.3773174967      -26.1399010495       -1.3593128663  MEMB      114             0.0000000000
     15171       120  POPS      C33           -15.9997149932      -28.9953928839      -10.4234602652  MEMB      114             0.0000000000
     15172       120  POPS      H3X           -15.1301799490      -29.5554308345      -10.0074001534  MEMB      114             0.0000000000
     15173       120  POPS      H3Y           -16.8839811578      -29.2432487946       -9.7978787680  MEMB      114             0.0000000000
     15174       120  POPS      C34           -15.6695272431      -27.4975358006      -10.3072908219  MEMB      114             0.0000000000
     15175       120  POPS      H4X           -16.5518307547      -26.9182164002      -10.6545494054  MEMB      114             0.0000000000
     15176       120  POPS      H4Y           -14.8144980080      -27.2675646662      -10.9823775760  MEMB      114             0.0000000000
     15177       120  POPS      C35           -15.3183803900      -27.0351524612       -8.8811310014  MEMB      114             0.0000000000
     15178       120  POPS      H5X           -14.6298388760      -27.7710701985       -8.4213564024  MEMB      114             0.0000000000
     15179       120  POPS      H5Y           -16.2573177718      -27.0272666357       -8.2873953624  MEMB      114             0.0000000000
     15180       120  POPS      C36           -14.6324109486      -25.6529916802       -8.8516971241  MEMB      114             0.0000000000
     15181       120  POPS      H6X           -15.2279961501      -24.9611519883       -9.4780192236  MEMB      114             0.0000000000
     15182       120  POPS      H6Y           -13.6414452829      -25.7483330871       -9.3476990926  MEMB      114             0.0000000000
     15183       120  POPS      C37           -14.4328797401      -25.0079979033       -7.4578504423  MEMB      114             0.0000000000
     15184       120  POPS      H7X           -14.0153418272      -23.9855619889       -7.5995994879  MEMB      114             0.0000000000
     15185       120  POPS      H7Y           -13.6782545198      -25.5923018251       -6.8888930693  MEMB      114             0.0000000000
     15186       120  POPS      C38           -15.7243677743      -24.8936195168       -6.6304446697  MEMB      114             0.0000000000
     15187       120  POPS      H8X           -16.1439752982      -25.9111269882       -6.4980139178  MEMB      114             0.0000000000
     15188       120  POPS      H8Y           -16.4634811767      -24.2986117250       -7.2070720568  MEMB      114             0.0000000000
     15189       120  POPS      C39           -15.5749318276      -24.2437040794       -5.2419416373  MEMB      114             0.0000000000
     15190       120  POPS      H9X           -15.3367474011      -23.1649245853       -5.3862546859  MEMB      114             0.0000000000
     15191       120  POPS      H9Y           -14.7217797042      -24.6913649749       -4.6932002962  MEMB      114             0.0000000000
     15192       120  POPS      C310          -16.8593268309      -24.3569203372       -4.3900122508  MEMB      114             0.0000000000
     15193       120  POPS      H10X          -17.6964628044      -23.9511241516       -5.0045942844  MEMB      114             0.0000000000
     15194       120  POPS      H10Y          -16.7716870119      -23.7122860983       -3.4884707371  MEMB      114             0.0000000000
     15195       120  POPS      C311          -17.2455996200      -25.7848464782       -3.9414005620  MEMB      114             0.0000000000
     15196       120  POPS      H11X          -16.8837142492      -26.5347214290       -4.6706976890  MEMB      114             0.0000000000
     15197       120  POPS      H11Y          -18.3550467602      -25.8655702469       -3.9513096192  MEMB      114             0.0000000000
     15198       120  POPS      C312          -16.7858875987      -26.1560146451       -2.5189626073  MEMB      114             0.0000000000
     15199       120  POPS      H12X          -17.1576468636      -25.3704172997       -1.8213616518  MEMB      114             0.0000000000
     15200       120  POPS      H12Y          -15.6816946320      -26.1461068574       -2.4436216154  MEMB      114             0.0000000000
     15201       120  POPS      C313          -17.3280828612      -27.5148996276       -2.0259818465  MEMB      114             0.0000000000
     15202       120  POPS      H13X          -18.4306862563      -27.4310072541       -2.0086453778  MEMB      114             0.0000000000
     15203       120  POPS      H13Y          -16.9809243743      -27.6609256425       -0.9783546218  MEMB      114             0.0000000000
     15204       120  POPS      C314          -16.9498917179      -28.7615843518       -2.8564794311  MEMB      114             0.0000000000
     15205       120  POPS      H14X          -15.8674063152      -28.9472805028       -2.7442718145  MEMB      114             0.0000000000
     15206       120  POPS      H14Y          -17.1397083079      -28.5762653694       -3.9354366489  MEMB      114             0.0000000000
     15207       120  POPS      C315          -17.6587612108      -30.0730141228       -2.4547310625  MEMB      114             0.0000000000
     15208       120  POPS      H15X          -16.9413272265      -30.9060544569       -2.5873227500  MEMB      114             0.0000000000
     15209       120  POPS      H15Y          -18.4790446431      -30.3053752082       -3.1642916541  MEMB      114             0.0000000000
     15210       120  POPS      C316          -18.1977275992      -30.1059093654       -1.0254689785  MEMB      114             0.0000000000
     15211       120  POPS      H16X          -18.6109713318      -31.1078852192       -0.7829974241  MEMB      114             0.0000000000
     15212       120  POPS      H16Y          -19.0037666309      -29.3628726624       -0.8993976213  MEMB      114             0.0000000000
     15213       120  POPS      H16Z          -17.3925235646      -29.8651959174       -0.2992123426  MEMB      114             0.0000000000
     15214       121  POPC      N             -30.4571451537       -8.8415453968      -19.1798028952  MEMB      115             0.0000000000
     15215       121  POPC      C12           -31.8327002547       -9.4732816452      -19.0087448988  MEMB      115             0.0000000000
     15216       121  POPC      H12A          -31.8204625758      -10.2018303673      -18.1999286432  MEMB      115             0.0000000000
     15217       121  POPC      H12B          -32.0934344660      -10.0190689222      -19.9071077529  MEMB      115             0.0000000000
     15218       121  POPC      C13           -30.2247564465       -7.8462742290      -18.0823803557  MEMB      115             0.0000000000
     15219       121  POPC      H13A          -31.0204472573       -7.1002399866      -18.1272438137  MEMB      115             0.0000000000
     15220       121  POPC      H13B          -30.3314111565       -8.2676170900      -17.0954102895  MEMB      115             0.0000000000
     15221       121  POPC      H13C          -29.2893753912       -7.3124452067      -18.1741498370  MEMB      115             0.0000000000
     15222       121  POPC      C14           -29.3760994573       -9.8537397636      -19.1851368664  MEMB      115             0.0000000000
     15223       121  POPC      H14A          -29.5249554334      -10.5862186922      -19.9715290502  MEMB      115             0.0000000000
     15224       121  POPC      H14B          -28.4463446083       -9.3485783977      -19.4274977763  MEMB      115             0.0000000000
     15225       121  POPC      H14C          -29.2916742593      -10.3472086345      -18.2289876152  MEMB      115             0.0000000000
     15226       121  POPC      C15           -30.3753664800       -8.0750682105      -20.4728727239  MEMB      115             0.0000000000
     15227       121  POPC      H15A          -30.4559327296       -8.7027469827      -21.3466077795  MEMB      115             0.0000000000
     15228       121  POPC      H15B          -29.4848958336       -7.4511643107      -20.5347422225  MEMB      115             0.0000000000
     15229       121  POPC      H15C          -31.2002921329       -7.3564583745      -20.5120588272  MEMB      115             0.0000000000
     15230       121  POPC      C11           -32.9781761093       -8.4889547274      -18.6749478583  MEMB      115             0.0000000000
     15231       121  POPC      H11A          -32.8755445676       -8.2454084585      -17.5935861575  MEMB      115             0.0000000000
     15232       121  POPC      H11B          -33.9737339934       -8.9788892604      -18.7949251368  MEMB      115             0.0000000000
     15233       121  POPC      P             -33.7765596682       -6.0646885419      -19.1908473716  MEMB      115             0.0000000000
     15234       121  POPC      O13           -35.0660888064       -6.3513032328      -19.8425264630  MEMB      115             0.0000000000
     15235       121  POPC      O14           -33.0239271261       -4.8883400703      -19.6589233196  MEMB      115             0.0000000000
     15236       121  POPC      O12           -32.8824518635       -7.3167838654      -19.4797047639  MEMB      115             0.0000000000
     15237       121  POPC      O11           -33.9022943897       -5.9997043934      -17.6240586417  MEMB      115             0.0000000000
     15238       121  POPC      C1            -32.8252175402       -5.5198798075      -16.8093897223  MEMB      115             0.0000000000
     15239       121  POPC      HA            -33.0520851721       -4.4708953679      -16.5230138140  MEMB      115             0.0000000000
     15240       121  POPC      HB            -31.8299649752       -5.5133904123      -17.3172299476  MEMB      115             0.0000000000
     15241       121  POPC      C2            -32.7159820802       -6.3473942066      -15.5027186135  MEMB      115             0.0000000000
     15242       121  POPC      HS            -32.4692219196       -5.6244004722      -14.6875720967  MEMB      115             0.0000000000
     15243       121  POPC      O21           -31.6870299021       -7.3513308118      -15.6453961139  MEMB      115             0.0000000000
     15244       121  POPC      C21           -31.2619490109       -7.8419997450      -14.4789765072  MEMB      115             0.0000000000
     15245       121  POPC      O22           -31.2406517152       -7.2363040744      -13.4257629860  MEMB      115             0.0000000000
     15246       121  POPC      C22           -30.8738162748       -9.3007489309      -14.6906405387  MEMB      115             0.0000000000
     15247       121  POPC      H2R           -30.0606098562       -9.3226987751      -15.4421652833  MEMB      115             0.0000000000
     15248       121  POPC      H2S           -31.7577183371       -9.8385918797      -15.0900587981  MEMB      115             0.0000000000
     15249       121  POPC      C3            -34.0710116772       -7.0505360057      -15.1857122706  MEMB      115             0.0000000000
     15250       121  POPC      HX            -34.2016942954       -7.8863497405      -15.9074390069  MEMB      115             0.0000000000
     15251       121  POPC      HY            -34.9226183702       -6.3603229551      -15.3784628083  MEMB      115             0.0000000000
     15252       121  POPC      O31           -34.0736815956       -7.5899847447      -13.8503267993  MEMB      115             0.0000000000
     15253       121  POPC      C31           -34.3452890664       -6.6702269195      -12.9243903092  MEMB      115             0.0000000000
     15254       121  POPC      O32           -34.7990563349       -5.5647958917      -13.1635187991  MEMB      115             0.0000000000
     15255       121  POPC      C32           -34.0166526499       -7.2101101642      -11.5362611665  MEMB      115             0.0000000000
     15256       121  POPC      H2X           -33.0200812405       -7.6917107459      -11.5701742855  MEMB      115             0.0000000000
     15257       121  POPC      H2Y           -34.7764875213       -7.9764026813      -11.2848448249  MEMB      115             0.0000000000
     15258       121  POPC      C23           -30.3968517194       -9.9594082841      -13.3887980876  MEMB      115             0.0000000000
     15259       121  POPC      H3R           -29.6648714000       -9.2849633236      -12.8832412918  MEMB      115             0.0000000000
     15260       121  POPC      H3S           -29.8727082455      -10.9112966258      -13.6321859608  MEMB      115             0.0000000000
     15261       121  POPC      C24           -31.5186712222      -10.2909014597      -12.4042341915  MEMB      115             0.0000000000
     15262       121  POPC      H4R           -32.0070406291      -11.2502196042      -12.6816620531  MEMB      115             0.0000000000
     15263       121  POPC      H4S           -32.2927270365       -9.4921523960      -12.4328796542  MEMB      115             0.0000000000
     15264       121  POPC      C25           -30.9690969999      -10.3557041965      -10.9753470563  MEMB      115             0.0000000000
     15265       121  POPC      H5R           -30.4345624905       -9.3970288840      -10.7720166596  MEMB      115             0.0000000000
     15266       121  POPC      H5S           -30.2226442413      -11.1723576332      -10.9008361777  MEMB      115             0.0000000000
     15267       121  POPC      C26           -32.0607662936      -10.5088168331       -9.9153202749  MEMB      115             0.0000000000
     15268       121  POPC      H6R           -32.8514372224       -9.7499116318      -10.1113414049  MEMB      115             0.0000000000
     15269       121  POPC      H6S           -31.6161664894      -10.2744764120       -8.9223925397  MEMB      115             0.0000000000
     15270       121  POPC      C27           -32.6869906405      -11.9095277438       -9.8495547131  MEMB      115             0.0000000000
     15271       121  POPC      H7R           -31.9153360842      -12.6330913032       -9.5072226825  MEMB      115             0.0000000000
     15272       121  POPC      H7S           -33.0110600625      -12.2287164478      -10.8650844782  MEMB      115             0.0000000000
     15273       121  POPC      C28           -33.8705345500      -11.9826852672       -8.8675941948  MEMB      115             0.0000000000
     15274       121  POPC      H8R           -33.5496858988      -11.5880344433       -7.8840896596  MEMB      115             0.0000000000
     15275       121  POPC      H8S           -34.1178360078      -13.0566702210       -8.7069507862  MEMB      115             0.0000000000
     15276       121  POPC      C29           -35.0774383190      -11.2820105350       -9.4381875044  MEMB      115             0.0000000000
     15277       121  POPC      H91           -35.5365790864      -11.8679434621      -10.2450122864  MEMB      115             0.0000000000
     15278       121  POPC      C210          -35.6424859035      -10.0897815358       -9.1635029530  MEMB      115             0.0000000000
     15279       121  POPC      H101          -36.5284362393       -9.8259992846       -9.7616913863  MEMB      115             0.0000000000
     15280       121  POPC      C211          -35.2758248028       -9.0052429032       -8.1774091286  MEMB      115             0.0000000000
     15281       121  POPC      H11R          -36.1807269724       -8.7297375532       -7.5951154092  MEMB      115             0.0000000000
     15282       121  POPC      H11S          -35.0229233057       -8.0991854880       -8.7600744403  MEMB      115             0.0000000000
     15283       121  POPC      C212          -34.1338525909       -9.2156770838       -7.1638033301  MEMB      115             0.0000000000
     15284       121  POPC      H12R          -33.1882430009       -9.3909292271       -7.7200294139  MEMB      115             0.0000000000
     15285       121  POPC      H12S          -34.3299595617      -10.1072319118       -6.5322040259  MEMB      115             0.0000000000
     15286       121  POPC      C213          -33.9106955378       -7.9989497427       -6.2571984670  MEMB      115             0.0000000000
     15287       121  POPC      H13R          -33.9246903203       -7.0737517245       -6.8741691298  MEMB      115             0.0000000000
     15288       121  POPC      H13S          -32.9025494480       -8.0838409793       -5.7943568987  MEMB      115             0.0000000000
     15289       121  POPC      C214          -34.9346997114       -7.8752328030       -5.1257435473  MEMB      115             0.0000000000
     15290       121  POPC      H14R          -34.7831572723       -8.7167959308       -4.4122257733  MEMB      115             0.0000000000
     15291       121  POPC      H14S          -35.9679472292       -7.9554354090       -5.5291128819  MEMB      115             0.0000000000
     15292       121  POPC      C215          -34.8010048145       -6.5408922541       -4.3847971745  MEMB      115             0.0000000000
     15293       121  POPC      H15R          -35.1045872294       -5.7162310271       -5.0684674095  MEMB      115             0.0000000000
     15294       121  POPC      H15S          -33.7329097282       -6.3838826874       -4.1120284095  MEMB      115             0.0000000000
     15295       121  POPC      C216          -35.6668234440       -6.4942059749       -3.1224137974  MEMB      115             0.0000000000
     15296       121  POPC      H16R          -35.2850654535       -7.2600341310       -2.4137009364  MEMB      115             0.0000000000
     15297       121  POPC      H16S          -36.7105306864       -6.7816016883       -3.3835026527  MEMB      115             0.0000000000
     15298       121  POPC      C217          -35.6897441892       -5.1163414078       -2.4447209134  MEMB      115             0.0000000000
     15299       121  POPC      H17R          -36.2668957613       -5.1996795666       -1.4948006074  MEMB      115             0.0000000000
     15300       121  POPC      H17S          -36.2386319535       -4.4057935541       -3.1047641657  MEMB      115             0.0000000000
     15301       121  POPC      C218          -34.3124746042       -4.5194697385       -2.1486428450  MEMB      115             0.0000000000
     15302       121  POPC      H18R          -34.4221899165       -3.5871920550       -1.5538035475  MEMB      115             0.0000000000
     15303       121  POPC      H18S          -33.7821807851       -4.2628654013       -3.0912656597  MEMB      115             0.0000000000
     15304       121  POPC      H18T          -33.6868398114       -5.2342962870       -1.5732738460  MEMB      115             0.0000000000
     15305       121  POPC      C33           -34.0098869604       -6.0830746071      -10.4813062302  MEMB      115             0.0000000000
     15306       121  POPC      H3X           -33.9922782092       -6.5184333892       -9.4637907491  MEMB      115             0.0000000000
     15307       121  POPC      H3Y           -34.9567584762       -5.5049364357      -10.5481098841  MEMB      115             0.0000000000
     15308       121  POPC      C34           -32.8007999306       -5.1458440776      -10.6207852791  MEMB      115             0.0000000000
     15309       121  POPC      H4X           -33.0304269736       -4.1988115531      -10.0850914402  MEMB      115             0.0000000000
     15310       121  POPC      H4Y           -32.6440118161       -4.8942748562      -11.6930419129  MEMB      115             0.0000000000
     15311       121  POPC      C35           -31.4930542050       -5.6983025866      -10.0336332595  MEMB      115             0.0000000000
     15312       121  POPC      H5X           -30.6830676388       -4.9593926200      -10.2312714619  MEMB      115             0.0000000000
     15313       121  POPC      H5Y           -31.2140164149       -6.6444794083      -10.5478318348  MEMB      115             0.0000000000
     15314       121  POPC      C36           -31.5805358344       -5.9311972247       -8.5199956775  MEMB      115             0.0000000000
     15315       121  POPC      H6X           -32.2464072140       -6.7986658189       -8.3189771324  MEMB      115             0.0000000000
     15316       121  POPC      H6Y           -32.0304752156       -5.0287419872       -8.0474378113  MEMB      115             0.0000000000
     15317       121  POPC      C37           -30.2233776288       -6.2048779467       -7.8673911233  MEMB      115             0.0000000000
     15318       121  POPC      H7X           -29.5107438537       -5.4000166040       -8.1581750040  MEMB      115             0.0000000000
     15319       121  POPC      H7Y           -29.8301922023       -7.1669899553       -8.2633256434  MEMB      115             0.0000000000
     15320       121  POPC      C38           -30.3345705772       -6.2501636310       -6.3372434951  MEMB      115             0.0000000000
     15321       121  POPC      H8X           -31.0734262979       -7.0187390957       -6.0310151737  MEMB      115             0.0000000000
     15322       121  POPC      H8Y           -30.7197184480       -5.2627049015       -5.9909750328  MEMB      115             0.0000000000
     15323       121  POPC      C39           -28.9923618839       -6.5232761063       -5.6496044676  MEMB      115             0.0000000000
     15324       121  POPC      H9X           -29.0626358641       -6.2610659378       -4.5720760966  MEMB      115             0.0000000000
     15325       121  POPC      H9Y           -28.2492438800       -5.8357707064       -6.1069242519  MEMB      115             0.0000000000
     15326       121  POPC      C310          -28.4957868237       -7.9706081666       -5.7964344752  MEMB      115             0.0000000000
     15327       121  POPC      H10X          -27.4018718816       -7.9949750314       -5.5933735629  MEMB      115             0.0000000000
     15328       121  POPC      H10Y          -28.6349723921       -8.3060774885       -6.8462790877  MEMB      115             0.0000000000
     15329       121  POPC      C311          -29.1708378885       -8.9727464667       -4.8452076476  MEMB      115             0.0000000000
     15330       121  POPC      H11X          -28.8424293952       -9.9920134976       -5.1490794789  MEMB      115             0.0000000000
     15331       121  POPC      H11Y          -30.2760619603       -8.9271764918       -4.9523384996  MEMB      115             0.0000000000
     15332       121  POPC      C312          -28.7705338614       -8.7725835396       -3.3758862838  MEMB      115             0.0000000000
     15333       121  POPC      H12X          -29.2443400965       -7.8500798410       -2.9753918881  MEMB      115             0.0000000000
     15334       121  POPC      H12Y          -27.6666544459       -8.6316781975       -3.3276491361  MEMB      115             0.0000000000
     15335       121  POPC      C313          -29.1408211726       -9.9701885051       -2.4901483056  MEMB      115             0.0000000000
     15336       121  POPC      H13X          -28.7763360471      -10.8989007875       -2.9839842048  MEMB      115             0.0000000000
     15337       121  POPC      H13Y          -30.2476013067      -10.0489240545       -2.4113889267  MEMB      115             0.0000000000
     15338       121  POPC      C314          -28.5214638483       -9.8979837325       -1.0855367855  MEMB      115             0.0000000000
     15339       121  POPC      H14X          -27.4174739777       -9.8304221040       -1.1832396592  MEMB      115             0.0000000000
     15340       121  POPC      H14Y          -28.7450814748      -10.8407553569       -0.5433064414  MEMB      115             0.0000000000
     15341       121  POPC      C315          -28.9990682449       -8.6969698509       -0.2589686871  MEMB      115             0.0000000000
     15342       121  POPC      H15X          -30.0976563388       -8.5738116412       -0.3861868022  MEMB      115             0.0000000000
     15343       121  POPC      H15Y          -28.5104749517       -7.7859894505       -0.6716131401  MEMB      115             0.0000000000
     15344       121  POPC      C316          -28.6832117024       -8.8025508419        1.2353352884  MEMB      115             0.0000000000
     15345       121  POPC      H16X          -28.7511312688       -7.8067785929        1.7204700151  MEMB      115             0.0000000000
     15346       121  POPC      H16Y          -27.6593067201       -9.1933615472        1.3955280939  MEMB      115             0.0000000000
     15347       121  POPC      H16Z          -29.3914173896       -9.4877006486        1.7466506750  MEMB      115             0.0000000000
     15348       122  POPC      N              26.6761717743      -19.3904814993      -21.2867484194  MEMB      116             0.0000000000
     15349       122  POPC      C12            26.0895291545      -20.5368149253      -20.4670074541  MEMB      116             0.0000000000
     15350       122  POPC      H12A           26.8486113797      -20.8612004066      -19.7605877486  MEMB      116             0.0000000000
     15351       122  POPC      H12B           25.8347622695      -21.3798709096      -21.1011894633  MEMB      116             0.0000000000
     15352       122  POPC      C13            27.1611107207      -18.3106815015      -20.3647745616  MEMB      116             0.0000000000
     15353       122  POPC      H13A           26.3771324149      -18.0256917844      -19.6532322372  MEMB      116             0.0000000000
     15354       122  POPC      H13B           28.0046350723      -18.6200065415      -19.7660691111  MEMB      116             0.0000000000
     15355       122  POPC      H13C           27.4799067947      -17.4076671576      -20.8741675492  MEMB      116             0.0000000000
     15356       122  POPC      C14            27.8121862019      -19.8363504382      -22.1392746402  MEMB      116             0.0000000000
     15357       122  POPC      H14A           28.0768941750      -19.0353485619      -22.8347994096  MEMB      116             0.0000000000
     15358       122  POPC      H14B           28.7143616867      -20.0098303903      -21.5603645630  MEMB      116             0.0000000000
     15359       122  POPC      H14C           27.5740391489      -20.7270261046      -22.7031644639  MEMB      116             0.0000000000
     15360       122  POPC      C15            25.6527675780      -18.7937052531      -22.1914113165  MEMB      116             0.0000000000
     15361       122  POPC      H15A           25.3582156613      -19.5327483218      -22.9330228010  MEMB      116             0.0000000000
     15362       122  POPC      H15B           26.0511487177      -17.9348348836      -22.7293377660  MEMB      116             0.0000000000
     15363       122  POPC      H15C           24.8106111968      -18.4654227504      -21.6033594355  MEMB      116             0.0000000000
     15364       122  POPC      C11            24.8479725404      -20.2302882491      -19.5959388735  MEMB      116             0.0000000000
     15365       122  POPC      H11A           24.5086081104      -21.2047809990      -19.1621436686  MEMB      116             0.0000000000
     15366       122  POPC      H11B           24.0078909582      -19.8604686356      -20.2187726624  MEMB      116             0.0000000000
     15367       122  POPC      P              24.8657081880      -19.5257973094      -17.0667589765  MEMB      116             0.0000000000
     15368       122  POPC      O13            23.7475088487      -20.4837486800      -17.0033376727  MEMB      116             0.0000000000
     15369       122  POPC      O14            24.6593554851      -18.2425454255      -16.3924607766  MEMB      116             0.0000000000
     15370       122  POPC      O12            25.1618998532      -19.2539472703      -18.6043442259  MEMB      116             0.0000000000
     15371       122  POPC      O11            26.1685720036      -20.2663392083      -16.5337859633  MEMB      116             0.0000000000
     15372       122  POPC      C1             27.4068310933      -20.3683724794      -17.2466096576  MEMB      116             0.0000000000
     15373       122  POPC      HA             27.3648352747      -19.9109719356      -18.2504506127  MEMB      116             0.0000000000
     15374       122  POPC      HB             27.6358364343      -21.4473713152      -17.3864330156  MEMB      116             0.0000000000
     15375       122  POPC      C2             28.6186293807      -19.6857127077      -16.5299820178  MEMB      116             0.0000000000
     15376       122  POPC      HS             29.5463065657      -19.9301636327      -17.0980882386  MEMB      116             0.0000000000
     15377       122  POPC      O21            28.7394299792      -20.1434207821      -15.1813690335  MEMB      116             0.0000000000
     15378       122  POPC      C21            28.9418450574      -21.4099323157      -14.9603648083  MEMB      116             0.0000000000
     15379       122  POPC      O22            29.3216808251      -22.2421853424      -15.7692146530  MEMB      116             0.0000000000
     15380       122  POPC      C22            28.6498347425      -21.6733124124      -13.4932101530  MEMB      116             0.0000000000
     15381       122  POPC      H2R            28.7561342689      -22.7598823493      -13.3074202439  MEMB      116             0.0000000000
     15382       122  POPC      H2S            27.5894485065      -21.3942019046      -13.3173306871  MEMB      116             0.0000000000
     15383       122  POPC      C3             28.5212619404      -18.1311547316      -16.4923279174  MEMB      116             0.0000000000
     15384       122  POPC      HX             28.4361337923      -17.7496791056      -17.5322222974  MEMB      116             0.0000000000
     15385       122  POPC      HY             29.4617627972      -17.7093931776      -16.0668485138  MEMB      116             0.0000000000
     15386       122  POPC      O31            27.3579135278      -17.7181948777      -15.7592284207  MEMB      116             0.0000000000
     15387       122  POPC      C31            27.4923536271      -17.7140560676      -14.4430607557  MEMB      116             0.0000000000
     15388       122  POPC      O32            28.5348310287      -17.5522999654      -13.8313662971  MEMB      116             0.0000000000
     15389       122  POPC      C32            26.1587308972      -18.0662503590      -13.7757045271  MEMB      116             0.0000000000
     15390       122  POPC      H2X            25.9296898985      -19.1141931168      -14.0657106647  MEMB      116             0.0000000000
     15391       122  POPC      H2Y            25.3690020080      -17.4261851663      -14.1996293255  MEMB      116             0.0000000000
     15392       122  POPC      C23            29.5802259196      -20.8407571906      -12.5843200179  MEMB      116             0.0000000000
     15393       122  POPC      H3R            29.5404030257      -19.7707079515      -12.9044286459  MEMB      116             0.0000000000
     15394       122  POPC      H3S            30.6321118896      -21.1836677775      -12.6911028184  MEMB      116             0.0000000000
     15395       122  POPC      C24            29.1459067452      -20.8920668708      -11.1183107328  MEMB      116             0.0000000000
     15396       122  POPC      H4R            28.0499307313      -20.6945977452      -11.0976224239  MEMB      116             0.0000000000
     15397       122  POPC      H4S            29.6380741450      -20.0768174769      -10.5421991322  MEMB      116             0.0000000000
     15398       122  POPC      C25            29.4492222368      -22.2392407180      -10.4503141467  MEMB      116             0.0000000000
     15399       122  POPC      H5R            30.4564795537      -22.1915836580       -9.9804984753  MEMB      116             0.0000000000
     15400       122  POPC      H5S            29.4882656148      -23.0407218223      -11.2214480529  MEMB      116             0.0000000000
     15401       122  POPC      C26            28.3900304453      -22.6491354850       -9.4198313851  MEMB      116             0.0000000000
     15402       122  POPC      H6R            28.7142598009      -23.5996444608       -8.9457904195  MEMB      116             0.0000000000
     15403       122  POPC      H6S            27.4263517133      -22.8477818412       -9.9442580360  MEMB      116             0.0000000000
     15404       122  POPC      C27            28.1438719699      -21.6131517132       -8.3142080235  MEMB      116             0.0000000000
     15405       122  POPC      H7R            27.3908881309      -22.0389984327       -7.6097717668  MEMB      116             0.0000000000
     15406       122  POPC      H7S            27.6993771689      -20.6992577893       -8.7662576235  MEMB      116             0.0000000000
     15407       122  POPC      C28            29.4181543327      -21.2358468379       -7.5427143126  MEMB      116             0.0000000000
     15408       122  POPC      H8R            30.1342731330      -20.7382672045       -8.2324070844  MEMB      116             0.0000000000
     15409       122  POPC      H8S            29.9045763267      -22.1730537735       -7.1905157840  MEMB      116             0.0000000000
     15410       122  POPC      C29            29.0767421181      -20.3042907766       -6.4110857639  MEMB      116             0.0000000000
     15411       122  POPC      H91            28.4160302433      -19.4653471946       -6.6763260068  MEMB      116             0.0000000000
     15412       122  POPC      C210           29.5365934509      -20.3852696886       -5.1553838360  MEMB      116             0.0000000000
     15413       122  POPC      H101           29.2245511283      -19.6221972824       -4.4270520019  MEMB      116             0.0000000000
     15414       122  POPC      C211           30.4881918194      -21.4192476286       -4.6253154365  MEMB      116             0.0000000000
     15415       122  POPC      H11R           31.5252679025      -21.0972730059       -4.8713792844  MEMB      116             0.0000000000
     15416       122  POPC      H11S           30.3315955792      -22.4212341405       -5.0844891166  MEMB      116             0.0000000000
     15417       122  POPC      C212           30.3958493994      -21.5571024342       -3.0990565018  MEMB      116             0.0000000000
     15418       122  POPC      H12R           30.3942911524      -20.5583857789       -2.6179828583  MEMB      116             0.0000000000
     15419       122  POPC      H12S           31.3256779396      -22.0607304183       -2.7506216002  MEMB      116             0.0000000000
     15420       122  POPC      C213           29.1937768199      -22.3816774775       -2.6173219798  MEMB      116             0.0000000000
     15421       122  POPC      H13R           28.5262866368      -22.6285041323       -3.4725336751  MEMB      116             0.0000000000
     15422       122  POPC      H13S           28.5987542800      -21.7905937448       -1.8867350163  MEMB      116             0.0000000000
     15423       122  POPC      C214           29.6722464934      -23.6696882454       -1.9415536087  MEMB      116             0.0000000000
     15424       122  POPC      H14R           30.4050086850      -23.3940087708       -1.1526175218  MEMB      116             0.0000000000
     15425       122  POPC      H14S           30.2050814666      -24.2893603293       -2.6991389496  MEMB      116             0.0000000000
     15426       122  POPC      C215           28.5583517707      -24.4992375967       -1.3039096376  MEMB      116             0.0000000000
     15427       122  POPC      H15R           27.7819317221      -24.7003838638       -2.0754478297  MEMB      116             0.0000000000
     15428       122  POPC      H15S           28.0816315144      -23.9334248944       -0.4733454500  MEMB      116             0.0000000000
     15429       122  POPC      C216           29.0996865331      -25.8356208277       -0.7825249674  MEMB      116             0.0000000000
     15430       122  POPC      H16R           29.7826762893      -25.6770058710        0.0792400886  MEMB      116             0.0000000000
     15431       122  POPC      H16S           29.7038838388      -26.2850053041       -1.6016209593  MEMB      116             0.0000000000
     15432       122  POPC      C217           27.9881939930      -26.8156537099       -0.4009420951  MEMB      116             0.0000000000
     15433       122  POPC      H17R           28.3876704898      -27.8506888279       -0.4753919350  MEMB      116             0.0000000000
     15434       122  POPC      H17S           27.1650857344      -26.7206804310       -1.1432546832  MEMB      116             0.0000000000
     15435       122  POPC      C218           27.4345983794      -26.6171003834        1.0064896528  MEMB      116             0.0000000000
     15436       122  POPC      H18R           27.1190598465      -25.5614980542        1.1482221495  MEMB      116             0.0000000000
     15437       122  POPC      H18S           28.2067853756      -26.8625049623        1.7656260162  MEMB      116             0.0000000000
     15438       122  POPC      H18T           26.5579153186      -27.2778677159        1.1763499369  MEMB      116             0.0000000000
     15439       122  POPC      C33            26.1462823515      -17.9485686288      -12.2361129923  MEMB      116             0.0000000000
     15440       122  POPC      H3X            26.3869354335      -16.9045487075      -11.9332373010  MEMB      116             0.0000000000
     15441       122  POPC      H3Y            26.9375172166      -18.6077272158      -11.8160065150  MEMB      116             0.0000000000
     15442       122  POPC      C34            24.7710405233      -18.3584245973      -11.6822743375  MEMB      116             0.0000000000
     15443       122  POPC      H4X            24.5945760988      -19.4299727134      -11.9329476445  MEMB      116             0.0000000000
     15444       122  POPC      H4Y            23.9841947943      -17.7730677001      -12.2135637600  MEMB      116             0.0000000000
     15445       122  POPC      C35            24.5983302318      -18.1543453774      -10.1709857416  MEMB      116             0.0000000000
     15446       122  POPC      H5X            23.5497121288      -18.4117852009       -9.8935603171  MEMB      116             0.0000000000
     15447       122  POPC      H5Y            24.7549144166      -17.0789587059       -9.9371912554  MEMB      116             0.0000000000
     15448       122  POPC      C36            25.5559658848      -19.0039162559       -9.3275566598  MEMB      116             0.0000000000
     15449       122  POPC      H6X            26.5984437777      -18.8181846163       -9.6732153543  MEMB      116             0.0000000000
     15450       122  POPC      H6Y            25.3441267856      -20.0856541300       -9.4787727212  MEMB      116             0.0000000000
     15451       122  POPC      C37            25.5167390836      -18.6725837630       -7.8296816082  MEMB      116             0.0000000000
     15452       122  POPC      H7X            25.5575668663      -17.5765806837       -7.6881066646  MEMB      116             0.0000000000
     15453       122  POPC      H7Y            26.4296653004      -19.1018236446       -7.3632731255  MEMB      116             0.0000000000
     15454       122  POPC      C38            24.2950159411      -19.1993034593       -7.0723508945  MEMB      116             0.0000000000
     15455       122  POPC      H8X            24.2527334426      -20.2981510566       -7.1948033444  MEMB      116             0.0000000000
     15456       122  POPC      H8Y            23.3691871114      -18.7585404838       -7.5024892376  MEMB      116             0.0000000000
     15457       122  POPC      C39            24.3658603181      -18.8914456909       -5.5705268579  MEMB      116             0.0000000000
     15458       122  POPC      H9X            23.3821372723      -19.1168396748       -5.0994543828  MEMB      116             0.0000000000
     15459       122  POPC      H9Y            24.5455237946      -17.8006816632       -5.4558888818  MEMB      116             0.0000000000
     15460       122  POPC      C310           25.4555360628      -19.7017176916       -4.8458003038  MEMB      116             0.0000000000
     15461       122  POPC      H10X           26.0095866121      -20.3266647491       -5.5812399914  MEMB      116             0.0000000000
     15462       122  POPC      H10Y           24.9727796647      -20.4127766780       -4.1425007435  MEMB      116             0.0000000000
     15463       122  POPC      C311           26.4710274949      -18.8384751796       -4.0825116691  MEMB      116             0.0000000000
     15464       122  POPC      H11X           27.0246844754      -18.2075172894       -4.8111522475  MEMB      116             0.0000000000
     15465       122  POPC      H11Y           27.2063286827      -19.5121960118       -3.5887785193  MEMB      116             0.0000000000
     15466       122  POPC      C312           25.8445663512      -17.9395238472       -3.0110166510  MEMB      116             0.0000000000
     15467       122  POPC      H12X           25.0727670904      -17.2798882283       -3.4603716929  MEMB      116             0.0000000000
     15468       122  POPC      H12Y           26.6294837264      -17.2700014788       -2.5928487792  MEMB      116             0.0000000000
     15469       122  POPC      C313           25.2275531662      -18.7424557043       -1.8611050176  MEMB      116             0.0000000000
     15470       122  POPC      H13X           26.0353415505      -19.3197523661       -1.3621841855  MEMB      116             0.0000000000
     15471       122  POPC      H13Y           24.5030945416      -19.4862606803       -2.2504422767  MEMB      116             0.0000000000
     15472       122  POPC      C314           24.5503256525      -17.8350500766       -0.8291756384  MEMB      116             0.0000000000
     15473       122  POPC      H14X           25.1840477826      -16.9347935010       -0.6840491909  MEMB      116             0.0000000000
     15474       122  POPC      H14Y           24.5065217941      -18.3476306470        0.1536499848  MEMB      116             0.0000000000
     15475       122  POPC      C315           23.1156830349      -17.4440422494       -1.2081654695  MEMB      116             0.0000000000
     15476       122  POPC      H15X           23.1132560571      -16.9608697409       -2.2105824055  MEMB      116             0.0000000000
     15477       122  POPC      H15Y           22.7593218282      -16.6878375448       -0.4726819922  MEMB      116             0.0000000000
     15478       122  POPC      C316           22.1470435351      -18.6304956452       -1.2116098242  MEMB      116             0.0000000000
     15479       122  POPC      H16X           22.2058439000      -19.1793445596       -0.2478661178  MEMB      116             0.0000000000
     15480       122  POPC      H16Y           22.3989791111      -19.3373165207       -2.0282513943  MEMB      116             0.0000000000
     15481       122  POPC      H16Z           21.1040548237      -18.2933513956       -1.3671554264  MEMB      116             0.0000000000
     15482       123  POPC      N             -13.2001556799      -31.4167646902      -20.4252631090  MEMB      117             0.0000000000
     15483       123  POPC      C12           -11.7204755400      -31.0586448419      -20.5666894820  MEMB      117             0.0000000000
     15484       123  POPC      H12A          -11.6095103372      -30.3358628452      -21.3633459357  MEMB      117             0.0000000000
     15485       123  POPC      H12B          -11.1777625570      -31.9664823338      -20.8424256074  MEMB      117             0.0000000000
     15486       123  POPC      C13           -13.2983131482      -32.6208874319      -19.5375100150  MEMB      117             0.0000000000
     15487       123  POPC      H13A          -12.9690602147      -32.3278126185      -18.5368621223  MEMB      117             0.0000000000
     15488       123  POPC      H13B          -14.2873101058      -33.0192792653      -19.4805553206  MEMB      117             0.0000000000
     15489       123  POPC      H13C          -12.6024611138      -33.3865432964      -19.8721431131  MEMB      117             0.0000000000
     15490       123  POPC      C14           -13.9936103797      -30.2768316659      -19.8534986732  MEMB      117             0.0000000000
     15491       123  POPC      H14A          -13.6630421164      -30.0492319507      -18.8395424750  MEMB      117             0.0000000000
     15492       123  POPC      H14B          -13.8812165967      -29.3725079166      -20.4418906261  MEMB      117             0.0000000000
     15493       123  POPC      H14C          -15.0621923467      -30.4623115091      -19.8069382264  MEMB      117             0.0000000000
     15494       123  POPC      C15           -13.7165157595      -31.7647401771      -21.7756741206  MEMB      117             0.0000000000
     15495       123  POPC      H15A          -13.8159074370      -30.8837329445      -22.3932811957  MEMB      117             0.0000000000
     15496       123  POPC      H15B          -14.6965449091      -32.2118441371      -21.6964965505  MEMB      117             0.0000000000
     15497       123  POPC      H15C          -13.0627757214      -32.4903729101      -22.2626742556  MEMB      117             0.0000000000
     15498       123  POPC      C11           -10.9655761036      -30.5338774084      -19.3343774188  MEMB      117             0.0000000000
     15499       123  POPC      H11A          -11.4551043151      -29.5817414561      -19.0061116015  MEMB      117             0.0000000000
     15500       123  POPC      H11B           -9.9193823862      -30.2794985311      -19.6320774900  MEMB      117             0.0000000000
     15501       123  POPC      P             -11.3016119948      -31.1823721721      -16.8544615537  MEMB      117             0.0000000000
     15502       123  POPC      O13           -10.9199916349      -29.7696541689      -16.6230905587  MEMB      117             0.0000000000
     15503       123  POPC      O14           -10.8230881185      -32.2143836928      -15.9156376988  MEMB      117             0.0000000000
     15504       123  POPC      O12           -10.9133243284      -31.5539610418      -18.3369196642  MEMB      117             0.0000000000
     15505       123  POPC      O11           -12.8858588471      -31.3214441184      -16.9576346842  MEMB      117             0.0000000000
     15506       123  POPC      C1            -13.7908971840      -30.4667939637      -16.2559879038  MEMB      117             0.0000000000
     15507       123  POPC      HA            -14.7937937250      -30.5615247480      -16.7277769021  MEMB      117             0.0000000000
     15508       123  POPC      HB            -13.5134231037      -29.3964398700      -16.3781493842  MEMB      117             0.0000000000
     15509       123  POPC      C2            -13.9637227959      -30.8466907837      -14.7452141143  MEMB      117             0.0000000000
     15510       123  POPC      HS            -14.8727212918      -30.3296388910      -14.3624194104  MEMB      117             0.0000000000
     15511       123  POPC      O21           -12.8286880098      -30.4581181778      -13.9606951749  MEMB      117             0.0000000000
     15512       123  POPC      C21           -12.5596076799      -29.1682435748      -13.9499360899  MEMB      117             0.0000000000
     15513       123  POPC      O22           -13.3451630939      -28.2777393867      -14.2339185114  MEMB      117             0.0000000000
     15514       123  POPC      C22           -11.1314513703      -28.9528739368      -13.4546447065  MEMB      117             0.0000000000
     15515       123  POPC      H2R           -10.5935734320      -28.3977975818      -14.2510550850  MEMB      117             0.0000000000
     15516       123  POPC      H2S           -10.6369806657      -29.9415033813      -13.3556030354  MEMB      117             0.0000000000
     15517       123  POPC      C3            -14.1729053861      -32.3710702747      -14.5291820104  MEMB      117             0.0000000000
     15518       123  POPC      HX            -13.3359254825      -32.8654544909      -15.0806164852  MEMB      117             0.0000000000
     15519       123  POPC      HY            -15.1235535393      -32.6868790339      -15.0073841255  MEMB      117             0.0000000000
     15520       123  POPC      O31           -14.2017465079      -32.6912827891      -13.1120755902  MEMB      117             0.0000000000
     15521       123  POPC      C31           -13.4742984384      -33.7586054896      -12.7553818008  MEMB      117             0.0000000000
     15522       123  POPC      O32           -12.8948241429      -34.5085126989      -13.5172524487  MEMB      117             0.0000000000
     15523       123  POPC      C32           -13.4478524846      -33.8812181548      -11.2222876381  MEMB      117             0.0000000000
     15524       123  POPC      H2X           -14.4795929641      -34.1234399317      -10.8946282701  MEMB      117             0.0000000000
     15525       123  POPC      H2Y           -13.1511657083      -32.8973044605      -10.8062486854  MEMB      117             0.0000000000
     15526       123  POPC      C23           -11.0653009402      -28.1810761377      -12.1198237763  MEMB      117             0.0000000000
     15527       123  POPC      H3R           -11.4869004083      -27.1579931566      -12.2352997183  MEMB      117             0.0000000000
     15528       123  POPC      H3S            -9.9874909548      -28.0774167489      -11.8552365719  MEMB      117             0.0000000000
     15529       123  POPC      C24           -11.7987575047      -28.9057333531      -10.9828492016  MEMB      117             0.0000000000
     15530       123  POPC      H4R           -11.5224226510      -29.9804366406      -10.9882979523  MEMB      117             0.0000000000
     15531       123  POPC      H4S           -12.8977964180      -28.8589405362      -11.1551745895  MEMB      117             0.0000000000
     15532       123  POPC      C25           -11.4915328981      -28.3277626306       -9.5974939239  MEMB      117             0.0000000000
     15533       123  POPC      H5R           -11.8927926134      -27.2908823460       -9.5486750286  MEMB      117             0.0000000000
     15534       123  POPC      H5S           -10.3923915632      -28.2790307485       -9.4343153084  MEMB      117             0.0000000000
     15535       123  POPC      C26           -12.1414365558      -29.1768132520       -8.4997048851  MEMB      117             0.0000000000
     15536       123  POPC      H6R           -11.6850584218      -30.1874028876       -8.4991103509  MEMB      117             0.0000000000
     15537       123  POPC      H6S           -13.2134529801      -29.3043429336       -8.7602756633  MEMB      117             0.0000000000
     15538       123  POPC      C27           -12.0401843089      -28.5587209356       -7.1008223256  MEMB      117             0.0000000000
     15539       123  POPC      H7R           -12.1168814531      -27.4517121675       -7.2051953642  MEMB      117             0.0000000000
     15540       123  POPC      H7S           -11.0255699200      -28.7723419752       -6.7007750853  MEMB      117             0.0000000000
     15541       123  POPC      C28           -13.1158010768      -29.0905416599       -6.1200742822  MEMB      117             0.0000000000
     15542       123  POPC      H8R           -12.6359687853      -29.6843568448       -5.3127018964  MEMB      117             0.0000000000
     15543       123  POPC      H8S           -13.7758126478      -29.7965216927       -6.6696203919  MEMB      117             0.0000000000
     15544       123  POPC      C29           -13.9724579294      -27.9881792863       -5.5631882402  MEMB      117             0.0000000000
     15545       123  POPC      H91           -14.6165995479      -27.5198732145       -6.3191297960  MEMB      117             0.0000000000
     15546       123  POPC      C210          -14.0596791992      -27.5075427127       -4.3142450080  MEMB      117             0.0000000000
     15547       123  POPC      H101          -14.7431480004      -26.6655519995       -4.1701408135  MEMB      117             0.0000000000
     15548       123  POPC      C211          -13.3483084611      -27.8901861445       -3.0412336167  MEMB      117             0.0000000000
     15549       123  POPC      H11R          -12.6219629192      -28.7167134734       -3.1714392076  MEMB      117             0.0000000000
     15550       123  POPC      H11S          -14.0902131066      -28.2647277204       -2.3089003629  MEMB      117             0.0000000000
     15551       123  POPC      C212          -12.7134322887      -26.6602053200       -2.3662296601  MEMB      117             0.0000000000
     15552       123  POPC      H12R          -12.5170034770      -26.8906524650       -1.2984538767  MEMB      117             0.0000000000
     15553       123  POPC      H12S          -13.4306936409      -25.8073982241       -2.3704030995  MEMB      117             0.0000000000
     15554       123  POPC      C213          -11.3995070811      -26.1964615270       -2.9971153837  MEMB      117             0.0000000000
     15555       123  POPC      H13R          -11.0601264292      -25.3051971556       -2.4210441918  MEMB      117             0.0000000000
     15556       123  POPC      H13S          -11.5930527496      -25.8776501773       -4.0447258962  MEMB      117             0.0000000000
     15557       123  POPC      C214          -10.2761325370      -27.2440293804       -2.9608870253  MEMB      117             0.0000000000
     15558       123  POPC      H14R          -10.4518162961      -27.9290956946       -2.1054748759  MEMB      117             0.0000000000
     15559       123  POPC      H14S           -9.3090016628      -26.7248954948       -2.7836753066  MEMB      117             0.0000000000
     15560       123  POPC      C215          -10.1441748059      -28.0308671948       -4.2708715499  MEMB      117             0.0000000000
     15561       123  POPC      H15R           -9.8219990381      -27.3317677542       -5.0757798171  MEMB      117             0.0000000000
     15562       123  POPC      H15S          -11.1415690420      -28.4095820859       -4.5502406629  MEMB      117             0.0000000000
     15563       123  POPC      C216           -9.1846800127      -29.2288713905       -4.2233431401  MEMB      117             0.0000000000
     15564       123  POPC      H16R           -8.1865804617      -28.8752862702       -3.8953161547  MEMB      117             0.0000000000
     15565       123  POPC      H16S           -9.0866025525      -29.6431376067       -5.2534823924  MEMB      117             0.0000000000
     15566       123  POPC      C217           -9.6181320291      -30.3723343761       -3.3020481809  MEMB      117             0.0000000000
     15567       123  POPC      H17R          -10.5744629510      -30.8013428599       -3.6682299681  MEMB      117             0.0000000000
     15568       123  POPC      H17S           -9.8347073683      -29.9819150770       -2.2893314905  MEMB      117             0.0000000000
     15569       123  POPC      C218           -8.5451088967      -31.4584294277       -3.2081007492  MEMB      117             0.0000000000
     15570       123  POPC      H18R           -8.4238022561      -31.9652068576       -4.1899170496  MEMB      117             0.0000000000
     15571       123  POPC      H18S           -8.8129445652      -32.2162070738       -2.4405379741  MEMB      117             0.0000000000
     15572       123  POPC      H18T           -7.5656608328      -31.0129764340       -2.9267482929  MEMB      117             0.0000000000
     15573       123  POPC      C33           -12.4718741195      -34.9803740536      -10.7306784092  MEMB      117             0.0000000000
     15574       123  POPC      H3X           -11.4197435749      -34.6615220991      -10.8964213618  MEMB      117             0.0000000000
     15575       123  POPC      H3Y           -12.6281917713      -35.8941070744      -11.3532554960  MEMB      117             0.0000000000
     15576       123  POPC      C34           -12.6803663661      -35.4177312172       -9.2657984862  MEMB      117             0.0000000000
     15577       123  POPC      H4X           -12.2081198366      -36.4255687144       -9.1788298590  MEMB      117             0.0000000000
     15578       123  POPC      H4Y           -13.7595529378      -35.5397968642       -9.0404122596  MEMB      117             0.0000000000
     15579       123  POPC      C35           -11.9919737128      -34.5550863588       -8.1998198833  MEMB      117             0.0000000000
     15580       123  POPC      H5X           -11.0724781162      -34.1227186280       -8.6356980279  MEMB      117             0.0000000000
     15581       123  POPC      H5Y           -11.6794164111      -35.2070939521       -7.3524347564  MEMB      117             0.0000000000
     15582       123  POPC      C36           -12.8556053389      -33.4412268552       -7.6063033000  MEMB      117             0.0000000000
     15583       123  POPC      H6X           -13.6498301609      -33.8862332723       -6.9658073598  MEMB      117             0.0000000000
     15584       123  POPC      H6Y           -13.3526479377      -32.8833234387       -8.4315630307  MEMB      117             0.0000000000
     15585       123  POPC      C37           -12.0276572480      -32.4464541731       -6.7782712885  MEMB      117             0.0000000000
     15586       123  POPC      H7X           -12.7081387997      -31.6712874751       -6.3755333515  MEMB      117             0.0000000000
     15587       123  POPC      H7Y           -11.3078732813      -31.9431183354       -7.4597347623  MEMB      117             0.0000000000
     15588       123  POPC      C38           -11.1990930810      -33.0365747630       -5.6278445463  MEMB      117             0.0000000000
     15589       123  POPC      H8X           -10.5637952328      -32.2191383603       -5.2247288607  MEMB      117             0.0000000000
     15590       123  POPC      H8Y           -10.5115359453      -33.8178669236       -6.0100112905  MEMB      117             0.0000000000
     15591       123  POPC      C39           -12.0046656596      -33.6496995251       -4.4802402422  MEMB      117             0.0000000000
     15592       123  POPC      H9X           -11.2852821402      -33.9488371063       -3.6847565482  MEMB      117             0.0000000000
     15593       123  POPC      H9Y           -12.5125536655      -34.5737734558       -4.8404145270  MEMB      117             0.0000000000
     15594       123  POPC      C310          -13.0553154238      -32.7198270231       -3.8652340127  MEMB      117             0.0000000000
     15595       123  POPC      H10X          -13.8813579957      -32.5880556553       -4.6006105518  MEMB      117             0.0000000000
     15596       123  POPC      H10Y          -12.6275943330      -31.7160325035       -3.6516785581  MEMB      117             0.0000000000
     15597       123  POPC      C311          -13.6093922221      -33.3198422185       -2.5690855233  MEMB      117             0.0000000000
     15598       123  POPC      H11X          -12.8625654750      -33.2330634089       -1.7518149438  MEMB      117             0.0000000000
     15599       123  POPC      H11Y          -13.7638382869      -34.4059933294       -2.7509662834  MEMB      117             0.0000000000
     15600       123  POPC      C312          -14.9649899506      -32.7432081009       -2.1546019122  MEMB      117             0.0000000000
     15601       123  POPC      H12X          -15.6343777821      -33.6036266709       -1.9506666655  MEMB      117             0.0000000000
     15602       123  POPC      H12Y          -15.4024373570      -32.1960323104       -3.0148934502  MEMB      117             0.0000000000
     15603       123  POPC      C313          -14.9376216222      -31.8717739359       -0.8914717846  MEMB      117             0.0000000000
     15604       123  POPC      H13X          -15.2548107446      -30.8376304212       -1.1419076408  MEMB      117             0.0000000000
     15605       123  POPC      H13Y          -13.8923327237      -31.8002659664       -0.5278803253  MEMB      117             0.0000000000
     15606       123  POPC      C314          -15.8400143534      -32.4205636073        0.2278771176  MEMB      117             0.0000000000
     15607       123  POPC      H14X          -16.0920637199      -33.4811338284        0.0154522187  MEMB      117             0.0000000000
     15608       123  POPC      H14Y          -16.7933754917      -31.8634773109        0.2711015342  MEMB      117             0.0000000000
     15609       123  POPC      C315          -15.1890262629      -32.4294448297        1.6078913379  MEMB      117             0.0000000000
     15610       123  POPC      H15X          -15.9676241086      -32.7011518796        2.3586744372  MEMB      117             0.0000000000
     15611       123  POPC      H15Y          -14.8099545284      -31.4179181876        1.8677633998  MEMB      117             0.0000000000
     15612       123  POPC      C316          -14.0680177194      -33.4588668386        1.6723183388  MEMB      117             0.0000000000
     15613       123  POPC      H16X          -14.4321026964      -34.4493348623        1.3281897075  MEMB      117             0.0000000000
     15614       123  POPC      H16Y          -13.6934032497      -33.5740415666        2.7066714298  MEMB      117             0.0000000000
     15615       123  POPC      H16Z          -13.2114421558      -33.1683570399        1.0292559568  MEMB      117             0.0000000000
     15616       124  POPS      N             -26.0183173421      -20.7471751457      -20.8475121616  MEMB      118             0.0000000000
     15617       124  POPS      HN1           -26.6190109987      -20.0667878398      -21.3687093801  MEMB      118             0.0000000000
     15618       124  POPS      HN2           -25.0222726197      -20.4429144400      -20.8760184520  MEMB      118             0.0000000000
     15619       124  POPS      HN3           -26.1391441788      -21.7363459444      -21.1539885898  MEMB      118             0.0000000000
     15620       124  POPS      C12           -26.4118227195      -20.6128695895      -19.4109736446  MEMB      118             0.0000000000
     15621       124  POPS      H12A          -27.2135635650      -21.3051015954      -19.2275613487  MEMB      118             0.0000000000
     15622       124  POPS      C13           -27.0324170584      -19.2469443553      -19.1396403777  MEMB      118             0.0000000000
     15623       124  POPS      O13A          -27.5337620543      -18.6587025099      -20.1351904932  MEMB      118             0.0000000000
     15624       124  POPS      O13B          -27.0452165477      -18.7779565945      -17.9771083562  MEMB      118             0.0000000000
     15625       124  POPS      C11           -25.2018929255      -20.9919727971      -18.5228594908  MEMB      118             0.0000000000
     15626       124  POPS      H11A          -25.5055092311      -21.0516319883      -17.4553822965  MEMB      118             0.0000000000
     15627       124  POPS      H11B          -24.4388952874      -20.1842850488      -18.5815725664  MEMB      118             0.0000000000
     15628       124  POPS      P             -25.3050476264      -23.6307133596      -19.0300758477  MEMB      118             0.0000000000
     15629       124  POPS      O13           -24.3100792213      -24.5041888509      -19.6763390699  MEMB      118             0.0000000000
     15630       124  POPS      O14           -26.6009429398      -23.5081078791      -19.7558890765  MEMB      118             0.0000000000
     15631       124  POPS      O12           -24.6105714979      -22.2092833615      -18.9629188488  MEMB      118             0.0000000000
     15632       124  POPS      O11           -25.5154402055      -24.0491083786      -17.5492949510  MEMB      118             0.0000000000
     15633       124  POPS      C1            -26.5041371268      -23.5048681575      -16.6879775191  MEMB      118             0.0000000000
     15634       124  POPS      HA            -27.3867673682      -24.1752692514      -16.7179651459  MEMB      118             0.0000000000
     15635       124  POPS      HB            -26.8649188281      -22.4930305593      -16.9709556239  MEMB      118             0.0000000000
     15636       124  POPS      C2            -25.9252421685      -23.4783124418      -15.2546332566  MEMB      118             0.0000000000
     15637       124  POPS      HS            -26.7802168250      -23.5670663215      -14.5550611634  MEMB      118             0.0000000000
     15638       124  POPS      O21           -25.2129591924      -22.2352635556      -15.0543045981  MEMB      118             0.0000000000
     15639       124  POPS      C21           -25.1139900959      -21.8246065173      -13.7949624867  MEMB      118             0.0000000000
     15640       124  POPS      O22           -25.5558345121      -22.4005787553      -12.8164728211  MEMB      118             0.0000000000
     15641       124  POPS      C22           -24.3880962813      -20.4806397817      -13.7691472737  MEMB      118             0.0000000000
     15642       124  POPS      H2R           -24.8988805986      -19.7832494421      -14.4632850003  MEMB      118             0.0000000000
     15643       124  POPS      H2S           -23.3566035082      -20.6665133089      -14.1361107746  MEMB      118             0.0000000000
     15644       124  POPS      C3            -25.0112994719      -24.7299500403      -15.0850067306  MEMB      118             0.0000000000
     15645       124  POPS      HX            -24.0935465577      -24.5843383811      -15.7025240804  MEMB      118             0.0000000000
     15646       124  POPS      HY            -25.5646262309      -25.5884599157      -15.5286808945  MEMB      118             0.0000000000
     15647       124  POPS      O31           -24.7637728746      -25.0440798048      -13.7056274625  MEMB      118             0.0000000000
     15648       124  POPS      C31           -23.5370871369      -24.8576367240      -13.2637229749  MEMB      118             0.0000000000
     15649       124  POPS      O32           -22.5713160736      -24.5364773446      -13.9342721673  MEMB      118             0.0000000000
     15650       124  POPS      C32           -23.5597915053      -25.0814020944      -11.7490320977  MEMB      118             0.0000000000
     15651       124  POPS      H2X           -23.6584980013      -26.1674043050      -11.5509364466  MEMB      118             0.0000000000
     15652       124  POPS      H2Y           -24.4824843014      -24.5788464079      -11.3828811078  MEMB      118             0.0000000000
     15653       124  POPS      C23           -24.3506278885      -19.8915369037      -12.3462248621  MEMB      118             0.0000000000
     15654       124  POPS      H3R           -23.6417196896      -19.0341730224      -12.3326375694  MEMB      118             0.0000000000
     15655       124  POPS      H3S           -23.9564348972      -20.6582041399      -11.6402340300  MEMB      118             0.0000000000
     15656       124  POPS      C24           -25.7150646132      -19.3927420898      -11.8429030280  MEMB      118             0.0000000000
     15657       124  POPS      H4R           -26.5491802582      -19.8305797132      -12.4356978486  MEMB      118             0.0000000000
     15658       124  POPS      H4S           -25.7547455277      -18.2896559181      -11.9869610866  MEMB      118             0.0000000000
     15659       124  POPS      C25           -25.9507535799      -19.7337438469      -10.3620245016  MEMB      118             0.0000000000
     15660       124  POPS      H5R           -24.9972262774      -19.5972607574       -9.8059207522  MEMB      118             0.0000000000
     15661       124  POPS      H5S           -26.2285471505      -20.8056847900      -10.2573617525  MEMB      118             0.0000000000
     15662       124  POPS      C26           -27.0194060782      -18.8360856193       -9.7262744692  MEMB      118             0.0000000000
     15663       124  POPS      H6R           -28.0234220546      -19.0750643601      -10.1400243806  MEMB      118             0.0000000000
     15664       124  POPS      H6S           -26.7731642164      -17.7895536258      -10.0112245471  MEMB      118             0.0000000000
     15665       124  POPS      C27           -27.0474944688      -18.8932750733       -8.1916878631  MEMB      118             0.0000000000
     15666       124  POPS      H7R           -27.5002511189      -17.9426768499       -7.8219592316  MEMB      118             0.0000000000
     15667       124  POPS      H7S           -25.9997655602      -18.9357717516       -7.8173648501  MEMB      118             0.0000000000
     15668       124  POPS      C28           -27.8592335091      -20.0778605796       -7.6413501921  MEMB      118             0.0000000000
     15669       124  POPS      H8R           -27.4653659373      -21.0192178247       -8.0866612504  MEMB      118             0.0000000000
     15670       124  POPS      H8S           -28.9115545064      -19.9557428508       -7.9792554710  MEMB      118             0.0000000000
     15671       124  POPS      C29           -27.8023547271      -20.0901048876       -6.1359106647  MEMB      118             0.0000000000
     15672       124  POPS      H91           -27.8858016036      -19.0944789962       -5.6759106881  MEMB      118             0.0000000000
     15673       124  POPS      C210          -27.6759563588      -21.1509465527       -5.3204404198  MEMB      118             0.0000000000
     15674       124  POPS      H101          -27.5569993969      -20.9548398822       -4.2476969818  MEMB      118             0.0000000000
     15675       124  POPS      C211          -27.5575760488      -22.6149237441       -5.6660034777  MEMB      118             0.0000000000
     15676       124  POPS      H11R          -27.5526550053      -22.7987957722       -6.7637707998  MEMB      118             0.0000000000
     15677       124  POPS      H11S          -28.4054383911      -23.1850526131       -5.2261960771  MEMB      118             0.0000000000
     15678       124  POPS      C212          -26.2589213745      -23.1408194961       -5.0490743187  MEMB      118             0.0000000000
     15679       124  POPS      H12R          -26.2205575587      -22.8992291323       -3.9616475203  MEMB      118             0.0000000000
     15680       124  POPS      H12S          -25.4193084578      -22.6052611566       -5.5454599896  MEMB      118             0.0000000000
     15681       124  POPS      C213          -26.0377004776      -24.6513973077       -5.2093772834  MEMB      118             0.0000000000
     15682       124  POPS      H13R          -26.4199459296      -24.9729112810       -6.2039690148  MEMB      118             0.0000000000
     15683       124  POPS      H13S          -26.6141362621      -25.1999092219       -4.4325033538  MEMB      118             0.0000000000
     15684       124  POPS      C214          -24.5468296488      -25.0069425330       -5.1248435181  MEMB      118             0.0000000000
     15685       124  POPS      H14R          -24.0368113316      -24.4985502911       -5.9755873122  MEMB      118             0.0000000000
     15686       124  POPS      H14S          -24.3885602035      -26.0954352774       -5.2679582954  MEMB      118             0.0000000000
     15687       124  POPS      C215          -23.8662114644      -24.5561283859       -3.8237810798  MEMB      118             0.0000000000
     15688       124  POPS      H15R          -24.1130142069      -25.2458575299       -2.9892806753  MEMB      118             0.0000000000
     15689       124  POPS      H15S          -24.2206769674      -23.5495812704       -3.5231149536  MEMB      118             0.0000000000
     15690       124  POPS      C216          -22.3474535739      -24.4678645482       -3.9896200162  MEMB      118             0.0000000000
     15691       124  POPS      H16R          -22.0826525541      -23.9359198188       -4.9193100701  MEMB      118             0.0000000000
     15692       124  POPS      H16S          -21.9819646845      -25.4831099775       -4.1653416269  MEMB      118             0.0000000000
     15693       124  POPS      C217          -21.6688410837      -23.7759156207       -2.8035283482  MEMB      118             0.0000000000
     15694       124  POPS      H17R          -21.8628462743      -24.3880563026       -1.8956580075  MEMB      118             0.0000000000
     15695       124  POPS      H17S          -22.1530054952      -22.7832614386       -2.6552088831  MEMB      118             0.0000000000
     15696       124  POPS      C218          -20.1615141982      -23.5675421475       -2.9563799298  MEMB      118             0.0000000000
     15697       124  POPS      H18R          -19.7502797710      -23.0221409582       -2.0799042371  MEMB      118             0.0000000000
     15698       124  POPS      H18S          -19.9320883185      -22.9872801682       -3.8753133089  MEMB      118             0.0000000000
     15699       124  POPS      H18T          -19.6520085084      -24.5488154299       -3.0231609676  MEMB      118             0.0000000000
     15700       124  POPS      C33           -22.3515288696      -24.4921310000      -10.9907948170  MEMB      118             0.0000000000
     15701       124  POPS      H3X           -21.9418574828      -23.6024962882      -11.5188591298  MEMB      118             0.0000000000
     15702       124  POPS      H3Y           -21.5384064155      -25.2540464027      -10.9449564124  MEMB      118             0.0000000000
     15703       124  POPS      C34           -22.7199384543      -24.0514014879       -9.5612398499  MEMB      118             0.0000000000
     15704       124  POPS      H4X           -21.7629862377      -23.9767774382       -9.0061403341  MEMB      118             0.0000000000
     15705       124  POPS      H4Y           -23.3320857554      -24.8360917015       -9.0657064263  MEMB      118             0.0000000000
     15706       124  POPS      C35           -23.4409920471      -22.6876668204       -9.4834099463  MEMB      118             0.0000000000
     15707       124  POPS      H5X           -24.4169196975      -22.7593515114      -10.0155277551  MEMB      118             0.0000000000
     15708       124  POPS      H5Y           -22.8264632562      -21.9338381186      -10.0194524694  MEMB      118             0.0000000000
     15709       124  POPS      C36           -23.7011688972      -22.1697990976       -8.0508050349  MEMB      118             0.0000000000
     15710       124  POPS      H6X           -24.3844677410      -22.8875522021       -7.5476431034  MEMB      118             0.0000000000
     15711       124  POPS      H6Y           -24.2263562673      -21.1900638058       -8.1015318966  MEMB      118             0.0000000000
     15712       124  POPS      C37           -22.4235295883      -22.0103433201       -7.2053158603  MEMB      118             0.0000000000
     15713       124  POPS      H7X           -21.7353802358      -21.2785108371       -7.6771585562  MEMB      118             0.0000000000
     15714       124  POPS      H7Y           -21.9274489617      -23.0052893769       -7.1966410657  MEMB      118             0.0000000000
     15715       124  POPS      C38           -22.6260087919      -21.6560255507       -5.7214222855  MEMB      118             0.0000000000
     15716       124  POPS      H8X           -21.6586674308      -21.8399775048       -5.1972182403  MEMB      118             0.0000000000
     15717       124  POPS      H8Y           -23.3827648687      -22.3369402893       -5.2873547776  MEMB      118             0.0000000000
     15718       124  POPS      C39           -23.0392171891      -20.2287494808       -5.3931514349  MEMB      118             0.0000000000
     15719       124  POPS      H9X           -24.0544883664      -20.0353573485       -5.8039472246  MEMB      118             0.0000000000
     15720       124  POPS      H9Y           -22.3185485082      -19.5461797133       -5.8977747288  MEMB      118             0.0000000000
     15721       124  POPS      C310          -23.0148988180      -19.9459524224       -3.8740824991  MEMB      118             0.0000000000
     15722       124  POPS      H10X          -22.8760214142      -18.8560571392       -3.7131065723  MEMB      118             0.0000000000
     15723       124  POPS      H10Y          -22.1391078785      -20.4566358535       -3.4182288503  MEMB      118             0.0000000000
     15724       124  POPS      C311          -24.2970124039      -20.3615472190       -3.1333712900  MEMB      118             0.0000000000
     15725       124  POPS      H11X          -24.5032168483      -21.4316643769       -3.3468526677  MEMB      118             0.0000000000
     15726       124  POPS      H11Y          -25.1513062050      -19.7714157384       -3.5341591964  MEMB      118             0.0000000000
     15727       124  POPS      C312          -24.2200410646      -20.1701988543       -1.6035727981  MEMB      118             0.0000000000
     15728       124  POPS      H12X          -23.9481765873      -19.1196223614       -1.3621676914  MEMB      118             0.0000000000
     15729       124  POPS      H12Y          -23.4143376314      -20.8270541785       -1.2084720024  MEMB      118             0.0000000000
     15730       124  POPS      C313          -25.5490269655      -20.5268102030       -0.9153841544  MEMB      118             0.0000000000
     15731       124  POPS      H13X          -25.9037049636      -21.4752279924       -1.3820582925  MEMB      118             0.0000000000
     15732       124  POPS      H13Y          -26.3006456943      -19.7385833342       -1.1427501968  MEMB      118             0.0000000000
     15733       124  POPS      C314          -25.4779546053      -20.7630297360        0.6084262892  MEMB      118             0.0000000000
     15734       124  POPS      H14X          -24.4319760761      -20.6723086332        0.9586195598  MEMB      118             0.0000000000
     15735       124  POPS      H14Y          -25.7908004526      -21.8099127239        0.8195510657  MEMB      118             0.0000000000
     15736       124  POPS      C315          -26.3787239234      -19.8325495576        1.4405664678  MEMB      118             0.0000000000
     15737       124  POPS      H15X          -27.4136484238      -19.9134239504        1.0599249726  MEMB      118             0.0000000000
     15738       124  POPS      H15Y          -26.0646812712      -18.7787166959        1.3018707619  MEMB      118             0.0000000000
     15739       124  POPS      C316          -26.4163089767      -20.1514660061        2.9355809134  MEMB      118             0.0000000000
     15740       124  POPS      H16X          -25.4157385131      -20.0371608970        3.3927913153  MEMB      118             0.0000000000
     15741       124  POPS      H16Y          -26.7459447928      -21.1991184519        3.0907541834  MEMB      118             0.0000000000
     15742       124  POPS      H16Z          -27.1213900430      -19.4764138325        3.4655552101  MEMB      118             0.0000000000
     15743       125  POPC      N              31.8585282572       13.7948175507      -19.5407529114  MEMB      119             0.0000000000
     15744       125  POPC      C12            32.0579675624       14.5034033566      -18.2010242154  MEMB      119             0.0000000000
     15745       125  POPC      H12A           32.6014149026       15.4337531476      -18.3714440426  MEMB      119             0.0000000000
     15746       125  POPC      H12B           32.6833359406       13.9132434577      -17.5432509148  MEMB      119             0.0000000000
     15747       125  POPC      C13            33.1329055842       13.5334390439      -20.2422487371  MEMB      119             0.0000000000
     15748       125  POPC      H13A           33.7610570094       12.8548351907      -19.6966431674  MEMB      119             0.0000000000
     15749       125  POPC      H13B           32.9063943730       13.1396536845      -21.2277175286  MEMB      119             0.0000000000
     15750       125  POPC      H13C           33.6610093937       14.4658553540      -20.4083282729  MEMB      119             0.0000000000
     15751       125  POPC      C14            31.0270601827       12.5453000043      -19.4058987558  MEMB      119             0.0000000000
     15752       125  POPC      H14A           30.0737591616       12.8025141122      -18.9353234002  MEMB      119             0.0000000000
     15753       125  POPC      H14B           30.7876410651       12.1208679238      -20.3808237898  MEMB      119             0.0000000000
     15754       125  POPC      H14C           31.5044641195       11.7740313968      -18.8195835988  MEMB      119             0.0000000000
     15755       125  POPC      C15            31.1029271185       14.7298960333      -20.4394383517  MEMB      119             0.0000000000
     15756       125  POPC      H15A           31.5653154112       15.7110093089      -20.4610837930  MEMB      119             0.0000000000
     15757       125  POPC      H15B           30.1286158048       14.9206418031      -19.9841120576  MEMB      119             0.0000000000
     15758       125  POPC      H15C           30.9612600448       14.3371996558      -21.4339418030  MEMB      119             0.0000000000
     15759       125  POPC      C11            30.7709658778       14.8951850081      -17.4245613482  MEMB      119             0.0000000000
     15760       125  POPC      H11A           31.0513201368       15.3656729896      -16.4498702424  MEMB      119             0.0000000000
     15761       125  POPC      H11B           30.1958761985       13.9759506618      -17.1699123389  MEMB      119             0.0000000000
     15762       125  POPC      P              29.8878216384       17.3069068633      -18.0365305640  MEMB      119             0.0000000000
     15763       125  POPC      O13            28.9463822819       17.8250131779      -19.0572369842  MEMB      119             0.0000000000
     15764       125  POPC      O14            31.2682946328       17.8530490962      -18.0630490375  MEMB      119             0.0000000000
     15765       125  POPC      O12            29.9404365151       15.7438657541      -18.2102688958  MEMB      119             0.0000000000
     15766       125  POPC      O11            29.2660407004       17.4159370908      -16.5928186907  MEMB      119             0.0000000000
     15767       125  POPC      C1             29.3130783476       18.5763017092      -15.7648477939  MEMB      119             0.0000000000
     15768       125  POPC      HA             28.3032581116       18.9874938191      -15.6106289369  MEMB      119             0.0000000000
     15769       125  POPC      HB             29.8972408789       19.4052750944      -16.2018311323  MEMB      119             0.0000000000
     15770       125  POPC      C2             29.8025214713       18.2014273408      -14.3561225135  MEMB      119             0.0000000000
     15771       125  POPC      HS             29.7806486808       19.1024877357      -13.7033042777  MEMB      119             0.0000000000
     15772       125  POPC      O21            31.1179580565       17.6783305469      -14.4425118671  MEMB      119             0.0000000000
     15773       125  POPC      C21            31.9950227659       18.4910979668      -14.9791605003  MEMB      119             0.0000000000
     15774       125  POPC      O22            31.9785545911       19.7135859193      -14.9554976160  MEMB      119             0.0000000000
     15775       125  POPC      C22            33.0724430776       17.6573287460      -15.6160285817  MEMB      119             0.0000000000
     15776       125  POPC      H2R            33.2838390778       18.0843841523      -16.6182167519  MEMB      119             0.0000000000
     15777       125  POPC      H2S            32.7214431092       16.6144084530      -15.7541542406  MEMB      119             0.0000000000
     15778       125  POPC      C3             28.8833568020       17.1179460971      -13.7425695314  MEMB      119             0.0000000000
     15779       125  POPC      HX             28.9295316633       16.1999829285      -14.3752182412  MEMB      119             0.0000000000
     15780       125  POPC      HY             27.8392233947       17.4928188440      -13.7908844530  MEMB      119             0.0000000000
     15781       125  POPC      O31            29.2148423720       16.8820835792      -12.3643076057  MEMB      119             0.0000000000
     15782       125  POPC      C31            30.0074679460       15.8474777324      -12.1169804271  MEMB      119             0.0000000000
     15783       125  POPC      O32            30.4149184638       15.0328230728      -12.9211679065  MEMB      119             0.0000000000
     15784       125  POPC      C32            30.3388983997       15.8355873600      -10.6234846371  MEMB      119             0.0000000000
     15785       125  POPC      H2X            30.1203040037       16.8241287391      -10.1764330298  MEMB      119             0.0000000000
     15786       125  POPC      H2Y            31.4263199364       15.6493638080      -10.5475086694  MEMB      119             0.0000000000
     15787       125  POPC      C23            34.3188802482       17.6958702591      -14.7424863153  MEMB      119             0.0000000000
     15788       125  POPC      H3R            34.6283606530       18.7384834680      -14.5141068535  MEMB      119             0.0000000000
     15789       125  POPC      H3S            35.1112044224       17.2491380575      -15.3826801915  MEMB      119             0.0000000000
     15790       125  POPC      C24            34.2069542591       16.8699341872      -13.4467657069  MEMB      119             0.0000000000
     15791       125  POPC      H4R            35.2318438594       16.6503594339      -13.0771175107  MEMB      119             0.0000000000
     15792       125  POPC      H4S            33.7304453158       15.8876434333      -13.6629189481  MEMB      119             0.0000000000
     15793       125  POPC      C25            33.4671916812       17.5633524686      -12.2978906212  MEMB      119             0.0000000000
     15794       125  POPC      H5R            32.3769114069       17.5594863979      -12.5048702270  MEMB      119             0.0000000000
     15795       125  POPC      H5S            33.7946644256       18.6227604633      -12.2061701621  MEMB      119             0.0000000000
     15796       125  POPC      C26            33.6763022435       16.8478203244      -10.9605033297  MEMB      119             0.0000000000
     15797       125  POPC      H6R            33.5217591720       15.7580251132      -11.0864992948  MEMB      119             0.0000000000
     15798       125  POPC      H6S            32.8755547495       17.1914759996      -10.2692574098  MEMB      119             0.0000000000
     15799       125  POPC      C27            35.0466904363       17.1195498162      -10.3307247481  MEMB      119             0.0000000000
     15800       125  POPC      H7R            35.6076714274       17.8473993467      -10.9607242527  MEMB      119             0.0000000000
     15801       125  POPC      H7S            35.6378293933       16.1769235543      -10.3208183649  MEMB      119             0.0000000000
     15802       125  POPC      C28            34.9366554801       17.6680163224       -8.8991244051  MEMB      119             0.0000000000
     15803       125  POPC      H8R            35.9647878271       17.8520815460       -8.5194666492  MEMB      119             0.0000000000
     15804       125  POPC      H8S            34.4882124747       16.8820873071       -8.2524669650  MEMB      119             0.0000000000
     15805       125  POPC      C29            34.1458019367       18.9521120259       -8.8891559515  MEMB      119             0.0000000000
     15806       125  POPC      H91            34.5609491093       19.7482023223       -9.5235989238  MEMB      119             0.0000000000
     15807       125  POPC      C210           33.0086393520       19.2048921633       -8.2262942539  MEMB      119             0.0000000000
     15808       125  POPC      H101           32.6035737896       20.2254684704       -8.2744403437  MEMB      119             0.0000000000
     15809       125  POPC      C211           32.2388001035       18.2770799552       -7.3220088123  MEMB      119             0.0000000000
     15810       125  POPC      H11R           32.7992368307       17.3485739924       -7.0739549187  MEMB      119             0.0000000000
     15811       125  POPC      H11S           31.2712657643       17.9812411064       -7.7845381050  MEMB      119             0.0000000000
     15812       125  POPC      C212           31.9673928871       19.0499835166       -6.0240895998  MEMB      119             0.0000000000
     15813       125  POPC      H12R           31.3112668158       19.9262975207       -6.2388885020  MEMB      119             0.0000000000
     15814       125  POPC      H12S           32.9358043354       19.4403485874       -5.6348799758  MEMB      119             0.0000000000
     15815       125  POPC      C213           31.3079110679       18.2117467949       -4.9227015282  MEMB      119             0.0000000000
     15816       125  POPC      H13R           32.0108684011       17.4205138780       -4.5806060351  MEMB      119             0.0000000000
     15817       125  POPC      H13S           30.4052468027       17.7076890736       -5.3359931724  MEMB      119             0.0000000000
     15818       125  POPC      C214           30.8891382121       19.0774735810       -3.7255299009  MEMB      119             0.0000000000
     15819       125  POPC      H14R           30.3098915903       18.4606224333       -3.0028233309  MEMB      119             0.0000000000
     15820       125  POPC      H14S           30.2126615146       19.8735810048       -4.1043068591  MEMB      119             0.0000000000
     15821       125  POPC      C215           32.0685534305       19.7447320161       -2.9993454453  MEMB      119             0.0000000000
     15822       125  POPC      H15R           32.7595203316       20.2063668221       -3.7380127343  MEMB      119             0.0000000000
     15823       125  POPC      H15S           32.6509732259       18.9717774010       -2.4517817750  MEMB      119             0.0000000000
     15824       125  POPC      C216           31.6417496981       20.8741933955       -2.0499707716  MEMB      119             0.0000000000
     15825       125  POPC      H16R           31.1209603367       21.6613812781       -2.6403000488  MEMB      119             0.0000000000
     15826       125  POPC      H16S           32.5608346989       21.3401387208       -1.6349679772  MEMB      119             0.0000000000
     15827       125  POPC      C217           30.7357101022       20.4445188176       -0.8888345256  MEMB      119             0.0000000000
     15828       125  POPC      H17R           29.7290589170       20.1914094513       -1.2942703921  MEMB      119             0.0000000000
     15829       125  POPC      H17S           30.6078108983       21.3189543512       -0.2103113602  MEMB      119             0.0000000000
     15830       125  POPC      C218           31.2558984766       19.2529162852       -0.0846171583  MEMB      119             0.0000000000
     15831       125  POPC      H18R           30.6813844015       19.1211642683        0.8560248770  MEMB      119             0.0000000000
     15832       125  POPC      H18S           32.3257842224       19.3784153563        0.1762399603  MEMB      119             0.0000000000
     15833       125  POPC      H18T           31.1530322123       18.3256057969       -0.6849804602  MEMB      119             0.0000000000
     15834       125  POPC      C33            29.6485281820       14.6953610598       -9.8456032863  MEMB      119             0.0000000000
     15835       125  POPC      H3X            30.0695135916       14.6716596068       -8.8136171617  MEMB      119             0.0000000000
     15836       125  POPC      H3Y            29.8983868542       13.7194454349      -10.3220573448  MEMB      119             0.0000000000
     15837       125  POPC      C34            28.1261440352       14.8361947288       -9.7514136095  MEMB      119             0.0000000000
     15838       125  POPC      H4X            27.7307360649       13.9326151207       -9.2375474418  MEMB      119             0.0000000000
     15839       125  POPC      H4Y            27.6838776074       14.8378437983      -10.7746441092  MEMB      119             0.0000000000
     15840       125  POPC      C35            27.6281798691       16.0798376678       -8.9940479695  MEMB      119             0.0000000000
     15841       125  POPC      H5X            26.5127020797       16.0660715388       -9.0384481346  MEMB      119             0.0000000000
     15842       125  POPC      H5Y            27.9627846486       16.9998241050       -9.5180525367  MEMB      119             0.0000000000
     15843       125  POPC      C36            28.0339182387       16.1461390888       -7.5086423526  MEMB      119             0.0000000000
     15844       125  POPC      H6X            27.4512541842       16.9692300004       -7.0338198352  MEMB      119             0.0000000000
     15845       125  POPC      H6Y            29.1112789527       16.3974194086       -7.4091678616  MEMB      119             0.0000000000
     15846       125  POPC      C37            27.7369154549       14.8407421620       -6.7562930986  MEMB      119             0.0000000000
     15847       125  POPC      H7X            28.5341062145       14.0918525005       -6.9542546603  MEMB      119             0.0000000000
     15848       125  POPC      H7Y            26.7839295220       14.4344012995       -7.1577893560  MEMB      119             0.0000000000
     15849       125  POPC      C38            27.5486186441       15.0007802447       -5.2429628868  MEMB      119             0.0000000000
     15850       125  POPC      H8X            26.7432863565       15.7480344975       -5.0577595928  MEMB      119             0.0000000000
     15851       125  POPC      H8Y            28.4875265284       15.3853240225       -4.7886329869  MEMB      119             0.0000000000
     15852       125  POPC      C39            27.1400372115       13.6712218431       -4.5845003772  MEMB      119             0.0000000000
     15853       125  POPC      H9X            27.9919331243       12.9607584685       -4.6497518470  MEMB      119             0.0000000000
     15854       125  POPC      H9Y            26.3016749525       13.2315990613       -5.1718223342  MEMB      119             0.0000000000
     15855       125  POPC      C310           26.6711393201       13.8126321459       -3.1263700244  MEMB      119             0.0000000000
     15856       125  POPC      H10X           26.3182665269       12.8254044400       -2.7529153327  MEMB      119             0.0000000000
     15857       125  POPC      H10Y           25.8012292751       14.5082421346       -3.1079937458  MEMB      119             0.0000000000
     15858       125  POPC      C311           27.7512773639       14.3512269184       -2.1790398390  MEMB      119             0.0000000000
     15859       125  POPC      H11X           27.2821455399       14.6530519457       -1.2151238578  MEMB      119             0.0000000000
     15860       125  POPC      H11Y           28.1914732760       15.2689088181       -2.6258247997  MEMB      119             0.0000000000
     15861       125  POPC      C312           28.8650179826       13.3358208493       -1.8850332865  MEMB      119             0.0000000000
     15862       125  POPC      H12X           29.0328324177       12.6805671023       -2.7676812770  MEMB      119             0.0000000000
     15863       125  POPC      H12Y           28.5366837487       12.6809161631       -1.0467677689  MEMB      119             0.0000000000
     15864       125  POPC      C313           30.2067524043       13.9927688393       -1.5311627629  MEMB      119             0.0000000000
     15865       125  POPC      H13X           30.6689204524       14.3867840931       -2.4647978583  MEMB      119             0.0000000000
     15866       125  POPC      H13Y           30.8882636957       13.2132465420       -1.1236232284  MEMB      119             0.0000000000
     15867       125  POPC      C314           30.0677358755       15.1395570196       -0.5213693822  MEMB      119             0.0000000000
     15868       125  POPC      H14X           29.3948882749       14.8163694782        0.3021691272  MEMB      119             0.0000000000
     15869       125  POPC      H14Y           29.5954646803       16.0139152715       -1.0233291020  MEMB      119             0.0000000000
     15870       125  POPC      C315           31.3992736307       15.5883489556        0.0865892620  MEMB      119             0.0000000000
     15871       125  POPC      H15X           31.7421714933       14.7946950254        0.7849832406  MEMB      119             0.0000000000
     15872       125  POPC      H15Y           31.2215828128       16.4935806702        0.7082603850  MEMB      119             0.0000000000
     15873       125  POPC      C316           32.4946483866       15.8782705817       -0.9433020462  MEMB      119             0.0000000000
     15874       125  POPC      H16X           32.1618946035       16.6383881356       -1.6817429593  MEMB      119             0.0000000000
     15875       125  POPC      H16Y           32.7768386718       14.9582944974       -1.4990789094  MEMB      119             0.0000000000
     15876       125  POPC      H16Z           33.4038554176       16.2593547095       -0.4338072598  MEMB      119             0.0000000000
     15877       126  POPC      N             -29.4427819464       19.9541984222      -19.7620995195  MEMB      120             0.0000000000
     15878       126  POPC      C12           -28.3022304651       19.5074476122      -18.8512318775  MEMB      120             0.0000000000
     15879       126  POPC      H12A          -27.8548868759       20.3679892318      -18.3738351690  MEMB      120             0.0000000000
     15880       126  POPC      H12B          -27.5060957218       19.0979569178      -19.4880745357  MEMB      120             0.0000000000
     15881       126  POPC      C13           -30.5997359725       20.4971326984      -18.9895565703  MEMB      120             0.0000000000
     15882       126  POPC      H13A          -30.3426998622       21.3825325164      -18.4271409893  MEMB      120             0.0000000000
     15883       126  POPC      H13B          -31.4294070137       20.7175108302      -19.6523296910  MEMB      120             0.0000000000
     15884       126  POPC      H13C          -30.9052827896       19.7300801130      -18.2806670434  MEMB      120             0.0000000000
     15885       126  POPC      C14           -28.8935595718       20.9551279617      -20.7228696280  MEMB      120             0.0000000000
     15886       126  POPC      H14A          -28.5945790258       21.8734007305      -20.2369633968  MEMB      120             0.0000000000
     15887       126  POPC      H14B          -27.9702970740       20.5635268330      -21.1721331863  MEMB      120             0.0000000000
     15888       126  POPC      H14C          -29.5739219052       21.1972011742      -21.5234275904  MEMB      120             0.0000000000
     15889       126  POPC      C15           -29.8906546496       18.7596488024      -20.5460900383  MEMB      120             0.0000000000
     15890       126  POPC      H15A          -30.6344580814       18.9924765236      -21.2837627775  MEMB      120             0.0000000000
     15891       126  POPC      H15B          -30.2710188254       17.9879861325      -19.8752213756  MEMB      120             0.0000000000
     15892       126  POPC      H15C          -29.0277979748       18.2845121853      -21.0172917109  MEMB      120             0.0000000000
     15893       126  POPC      C11           -28.5708025355       18.3871789130      -17.8105721413  MEMB      120             0.0000000000
     15894       126  POPC      H11A          -29.3966701762       18.6831726147      -17.1313313346  MEMB      120             0.0000000000
     15895       126  POPC      H11B          -27.6572439052       18.2865657474      -17.1758104123  MEMB      120             0.0000000000
     15896       126  POPC      P             -27.6994246340       16.3498868671      -19.1490668395  MEMB      120             0.0000000000
     15897       126  POPC      O13           -27.1350841159       17.2525825839      -20.1766623262  MEMB      120             0.0000000000
     15898       126  POPC      O14           -28.2493158155       15.0635632701      -19.6377033579  MEMB      120             0.0000000000
     15899       126  POPC      O12           -28.8934275567       17.1384165644      -18.4341499285  MEMB      120             0.0000000000
     15900       126  POPC      O11           -26.6779938311       16.0999645241      -17.9788453298  MEMB      120             0.0000000000
     15901       126  POPC      C1            -26.6713523005       14.8475655710      -17.2913896618  MEMB      120             0.0000000000
     15902       126  POPC      HA            -25.7352376022       14.7776306645      -16.7170017925  MEMB      120             0.0000000000
     15903       126  POPC      HB            -26.6928420199       13.9848619470      -17.9966406564  MEMB      120             0.0000000000
     15904       126  POPC      C2            -27.8191689959       14.7521691506      -16.2672603785  MEMB      120             0.0000000000
     15905       126  POPC      HS            -28.7582306813       14.8408987999      -16.8659304643  MEMB      120             0.0000000000
     15906       126  POPC      O21           -27.6710958987       15.8613217789      -15.3527075075  MEMB      120             0.0000000000
     15907       126  POPC      C21           -28.7990284020       16.1332336659      -14.7517742916  MEMB      120             0.0000000000
     15908       126  POPC      O22           -29.8160420454       15.4546683365      -14.8299708773  MEMB      120             0.0000000000
     15909       126  POPC      C22           -28.6954295661       17.4808945903      -13.9879080222  MEMB      120             0.0000000000
     15910       126  POPC      H2R           -28.7703812995       17.2711252772      -12.9048273081  MEMB      120             0.0000000000
     15911       126  POPC      H2S           -29.5909359542       18.0546486670      -14.2761428349  MEMB      120             0.0000000000
     15912       126  POPC      C3            -27.8426958406       13.3741533052      -15.5149351158  MEMB      120             0.0000000000
     15913       126  POPC      HX            -27.3811511508       12.6003830247      -16.1657606188  MEMB      120             0.0000000000
     15914       126  POPC      HY            -28.9297517953       13.1297528856      -15.4259775259  MEMB      120             0.0000000000
     15915       126  POPC      O31           -27.1893852532       13.3948290448      -14.2188204301  MEMB      120             0.0000000000
     15916       126  POPC      C31           -27.6620388346       12.4561516584      -13.3845566598  MEMB      120             0.0000000000
     15917       126  POPC      O32           -28.4648519645       11.5984383042      -13.6971771262  MEMB      120             0.0000000000
     15918       126  POPC      C32           -27.1010454297       12.5932243020      -11.9643917855  MEMB      120             0.0000000000
     15919       126  POPC      H2X           -26.4251771200       11.7247755699      -11.8104737602  MEMB      120             0.0000000000
     15920       126  POPC      H2Y           -27.9535202529       12.5019268664      -11.2637523615  MEMB      120             0.0000000000
     15921       126  POPC      C23           -27.5122954946       18.4517171056      -14.2631149707  MEMB      120             0.0000000000
     15922       126  POPC      H3R           -27.0168184158       18.2133561503      -15.2290322309  MEMB      120             0.0000000000
     15923       126  POPC      H3S           -26.7320755502       18.3110161559      -13.4844762520  MEMB      120             0.0000000000
     15924       126  POPC      C24           -27.9844907754       19.9263868191      -14.3041881166  MEMB      120             0.0000000000
     15925       126  POPC      H4R           -28.7558587041       20.0272173178      -15.0998140456  MEMB      120             0.0000000000
     15926       126  POPC      H4S           -27.1393690150       20.5720712708      -14.6185163490  MEMB      120             0.0000000000
     15927       126  POPC      C25           -28.5743507187       20.4857081364      -12.9951708364  MEMB      120             0.0000000000
     15928       126  POPC      H5R           -29.5265017883       19.9599403550      -12.7618963429  MEMB      120             0.0000000000
     15929       126  POPC      H5S           -28.8203445365       21.5626510418      -13.1532066027  MEMB      120             0.0000000000
     15930       126  POPC      C26           -27.6534487320       20.3897356287      -11.7675364298  MEMB      120             0.0000000000
     15931       126  POPC      H6R           -26.6174036043       20.6646634000      -12.0658229208  MEMB      120             0.0000000000
     15932       126  POPC      H6S           -27.6328697360       19.3397891509      -11.3983784812  MEMB      120             0.0000000000
     15933       126  POPC      C27           -28.0810863430       21.3313810438      -10.6250344314  MEMB      120             0.0000000000
     15934       126  POPC      H7R           -28.0535743996       22.3715995955      -11.0151829757  MEMB      120             0.0000000000
     15935       126  POPC      H7S           -27.3346008116       21.2585944346       -9.8011032995  MEMB      120             0.0000000000
     15936       126  POPC      C28           -29.4812335963       21.0262156046      -10.0597028176  MEMB      120             0.0000000000
     15937       126  POPC      H8R           -29.4455369750       19.9925381864       -9.6485747294  MEMB      120             0.0000000000
     15938       126  POPC      H8S           -30.2168374867       21.0078822663      -10.8937099593  MEMB      120             0.0000000000
     15939       126  POPC      C29           -29.9343849340       22.0419077026       -9.0353579890  MEMB      120             0.0000000000
     15940       126  POPC      H91           -30.1900821275       23.0247141683       -9.4562849086  MEMB      120             0.0000000000
     15941       126  POPC      C210          -30.0573474553       21.8604982479       -7.7057533660  MEMB      120             0.0000000000
     15942       126  POPC      H101          -30.3852845578       22.7043363893       -7.0778005475  MEMB      120             0.0000000000
     15943       126  POPC      C211          -29.7605380180       20.5833805657       -6.9613706496  MEMB      120             0.0000000000
     15944       126  POPC      H11R          -29.8316603523       19.7067621875       -7.6351979816  MEMB      120             0.0000000000
     15945       126  POPC      H11S          -30.5073754883       20.4041443005       -6.1553087276  MEMB      120             0.0000000000
     15946       126  POPC      C212          -28.3444630759       20.5595783926       -6.3653150485  MEMB      120             0.0000000000
     15947       126  POPC      H12R          -27.6172929054       21.0495993632       -7.0503386089  MEMB      120             0.0000000000
     15948       126  POPC      H12S          -28.0328308288       19.4934831157       -6.2662368243  MEMB      120             0.0000000000
     15949       126  POPC      C213          -28.2768812252       21.1907112114       -4.9725661840  MEMB      120             0.0000000000
     15950       126  POPC      H13R          -28.9454254327       20.5984261246       -4.3055541773  MEMB      120             0.0000000000
     15951       126  POPC      H13S          -28.6577744423       22.2362004349       -4.9973073000  MEMB      120             0.0000000000
     15952       126  POPC      C214          -26.8551513626       21.1798937756       -4.3972693617  MEMB      120             0.0000000000
     15953       126  POPC      H14R          -26.2625596436       21.9950879060       -4.8679618727  MEMB      120             0.0000000000
     15954       126  POPC      H14S          -26.3623711043       20.2148530782       -4.6564955678  MEMB      120             0.0000000000
     15955       126  POPC      C215          -26.8496039216       21.3311620038       -2.8711985448  MEMB      120             0.0000000000
     15956       126  POPC      H15R          -26.4630434356       20.3903030033       -2.4200292203  MEMB      120             0.0000000000
     15957       126  POPC      H15S          -27.9006745659       21.4607522757       -2.5299494373  MEMB      120             0.0000000000
     15958       126  POPC      C216          -26.0200630326       22.5114028176       -2.3567241278  MEMB      120             0.0000000000
     15959       126  POPC      H16R          -26.4332868038       23.4574259640       -2.7732094127  MEMB      120             0.0000000000
     15960       126  POPC      H16S          -24.9749275875       22.4053735801       -2.7243627096  MEMB      120             0.0000000000
     15961       126  POPC      C217          -26.0071907041       22.6007141547       -0.8223850715  MEMB      120             0.0000000000
     15962       126  POPC      H17R          -25.3572319575       23.4566800803       -0.5331764898  MEMB      120             0.0000000000
     15963       126  POPC      H17S          -25.5352192785       21.6765480125       -0.4159797239  MEMB      120             0.0000000000
     15964       126  POPC      C218          -27.3876938776       22.7822957075       -0.1799667516  MEMB      120             0.0000000000
     15965       126  POPC      H18R          -27.2934693950       22.9116945100        0.9182313624  MEMB      120             0.0000000000
     15966       126  POPC      H18S          -28.0289190566       21.8941333915       -0.3609547032  MEMB      120             0.0000000000
     15967       126  POPC      H18T          -27.8994499039       23.6773831390       -0.5927843051  MEMB      120             0.0000000000
     15968       126  POPC      C33           -26.3198081974       13.8934531562      -11.6702658772  MEMB      120             0.0000000000
     15969       126  POPC      H3X           -25.5285570350       13.9875566527      -12.4434499566  MEMB      120             0.0000000000
     15970       126  POPC      H3Y           -25.7974634128       13.7887950796      -10.6954290839  MEMB      120             0.0000000000
     15971       126  POPC      C34           -27.1937145417       15.1595620376      -11.6486857064  MEMB      120             0.0000000000
     15972       126  POPC      H4X           -28.0910749264       14.9921901487      -12.2826792736  MEMB      120             0.0000000000
     15973       126  POPC      H4Y           -26.6184351559       15.9953778167      -12.1115863616  MEMB      120             0.0000000000
     15974       126  POPC      C35           -27.6314588633       15.6075207188      -10.2475079473  MEMB      120             0.0000000000
     15975       126  POPC      H5X           -28.1021664806       14.7489816397       -9.7231064224  MEMB      120             0.0000000000
     15976       126  POPC      H5Y           -28.4060440625       16.4009274368      -10.3630338817  MEMB      120             0.0000000000
     15977       126  POPC      C36           -26.4837038808       16.1971466014       -9.4138696897  MEMB      120             0.0000000000
     15978       126  POPC      H6X           -26.0188992568       17.0300879401       -9.9896647680  MEMB      120             0.0000000000
     15979       126  POPC      H6Y           -25.6955064104       15.4324588279       -9.2475342565  MEMB      120             0.0000000000
     15980       126  POPC      C37           -26.9363807983       16.7353672887       -8.0474382698  MEMB      120             0.0000000000
     15981       126  POPC      H7X           -27.7046708514       17.5264326553       -8.2087403699  MEMB      120             0.0000000000
     15982       126  POPC      H7Y           -26.0727424713       17.2169034207       -7.5376084116  MEMB      120             0.0000000000
     15983       126  POPC      C38           -27.4919081130       15.6520555736       -7.1123892459  MEMB      120             0.0000000000
     15984       126  POPC      H8X           -26.8636551395       15.6048889532       -6.1929574026  MEMB      120             0.0000000000
     15985       126  POPC      H8Y           -27.4297915335       14.6561859824       -7.6017260584  MEMB      120             0.0000000000
     15986       126  POPC      C39           -28.9427062274       15.9308329919       -6.7113235097  MEMB      120             0.0000000000
     15987       126  POPC      H9X           -29.5707729483       16.0219194268       -7.6237139382  MEMB      120             0.0000000000
     15988       126  POPC      H9Y           -28.9745491043       16.9105839236       -6.1804035351  MEMB      120             0.0000000000
     15989       126  POPC      C310          -29.5454197814       14.8465864289       -5.8124200989  MEMB      120             0.0000000000
     15990       126  POPC      H10X          -28.7284164228       14.3024747455       -5.2873733293  MEMB      120             0.0000000000
     15991       126  POPC      H10Y          -30.0850446853       14.1092901729       -6.4484879059  MEMB      120             0.0000000000
     15992       126  POPC      C311          -30.4955039212       15.4335248478       -4.7610367934  MEMB      120             0.0000000000
     15993       126  POPC      H11X          -31.1967297110       14.6408777056       -4.4139216310  MEMB      120             0.0000000000
     15994       126  POPC      H11Y          -31.1113489148       16.2385483811       -5.2200188203  MEMB      120             0.0000000000
     15995       126  POPC      C312          -29.7432176187       15.9784756670       -3.5369662905  MEMB      120             0.0000000000
     15996       126  POPC      H12X          -28.9817721721       16.7276500154       -3.8451459009  MEMB      120             0.0000000000
     15997       126  POPC      H12Y          -29.2006470250       15.1331926848       -3.0572742950  MEMB      120             0.0000000000
     15998       126  POPC      C313          -30.6997087729       16.5986382107       -2.5123075905  MEMB      120             0.0000000000
     15999       126  POPC      H13X          -31.5927798600       15.9365476358       -2.4567099037  MEMB      120             0.0000000000
     16000       126  POPC      H13Y          -31.0460966801       17.5913651372       -2.8735292611  MEMB      120             0.0000000000
     16001       126  POPC      C314          -30.1190377840       16.7104171762       -1.0931196134  MEMB      120             0.0000000000
     16002       126  POPC      H14X          -29.8701141489       15.6869334465       -0.7379419588  MEMB      120             0.0000000000
     16003       126  POPC      H14Y          -30.8989867124       17.1249590434       -0.4153181614  MEMB      120             0.0000000000
     16004       126  POPC      C315          -28.8562525386       17.5659292693       -0.9484068815  MEMB      120             0.0000000000
     16005       126  POPC      H15X          -28.0096508998       17.0411505294       -1.4413736008  MEMB      120             0.0000000000
     16006       126  POPC      H15Y          -28.6146935583       17.6380023936        0.1377826577  MEMB      120             0.0000000000
     16007       126  POPC      C316          -28.9596016668       18.9802162656       -1.5084460685  MEMB      120             0.0000000000
     16008       126  POPC      H16X          -29.8647034395       19.4890106103       -1.1283583268  MEMB      120             0.0000000000
     16009       126  POPC      H16Y          -28.9967800589       18.9652654653       -2.6180553198  MEMB      120             0.0000000000
     16010       126  POPC      H16Z          -28.0750506218       19.5703644036       -1.1891976754  MEMB      120             0.0000000000
     16011       127  POPC      N              24.1274186743       26.6538994637      -18.9040742288  MEMB      121             0.0000000000
     16012       127  POPC      C12            24.6153972895       27.4115142739      -20.1387511486  MEMB      121             0.0000000000
     16013       127  POPC      H12A           24.9142534835       26.7139199967      -20.9127727847  MEMB      121             0.0000000000
     16014       127  POPC      H12B           25.4948026598       27.9774161124      -19.8524588754  MEMB      121             0.0000000000
     16015       127  POPC      C13            22.6985858264       26.2407238306      -19.0972663106  MEMB      121             0.0000000000
     16016       127  POPC      H13A           22.6068402178       25.7228778950      -20.0498126996  MEMB      121             0.0000000000
     16017       127  POPC      H13B           22.3427268633       25.5880528530      -18.3128224288  MEMB      121             0.0000000000
     16018       127  POPC      H13C           22.0500820013       27.1202767931      -19.1229938967  MEMB      121             0.0000000000
     16019       127  POPC      C14            24.9265594728       25.4271618107      -18.6833237182  MEMB      121             0.0000000000
     16020       127  POPC      H14A           25.9744733740       25.6622573279      -18.6005049874  MEMB      121             0.0000000000
     16021       127  POPC      H14B           24.6127699438       24.9386519337      -17.7635144121  MEMB      121             0.0000000000
     16022       127  POPC      H14C           24.7525059024       24.6957939444      -19.4771020955  MEMB      121             0.0000000000
     16023       127  POPC      C15            24.2282435437       27.5534172097      -17.7081133080  MEMB      121             0.0000000000
     16024       127  POPC      H15A           25.2544286949       27.7766773816      -17.4651759802  MEMB      121             0.0000000000
     16025       127  POPC      H15B           23.7048852629       27.1538762193      -16.8509672527  MEMB      121             0.0000000000
     16026       127  POPC      H15C           23.7257886206       28.4898225439      -17.9490891964  MEMB      121             0.0000000000
     16027       127  POPC      C11            23.6219965219       28.4075265316      -20.7845270671  MEMB      121             0.0000000000
     16028       127  POPC      H11A           22.8161349442       27.8462036996      -21.3078419409  MEMB      121             0.0000000000
     16029       127  POPC      H11B           24.1360169497       29.0274453347      -21.5522650119  MEMB      121             0.0000000000
     16030       127  POPC      P              21.5704406235       29.5965184419      -19.6628004292  MEMB      121             0.0000000000
     16031       127  POPC      O13            21.0167828863       28.7566376460      -18.5845368595  MEMB      121             0.0000000000
     16032       127  POPC      O14            20.8639670907       29.5651250914      -20.9674928689  MEMB      121             0.0000000000
     16033       127  POPC      O12            23.1035504367       29.2581086975      -19.7918795224  MEMB      121             0.0000000000
     16034       127  POPC      O11            21.6720873674       31.0954275000      -19.1974979477  MEMB      121             0.0000000000
     16035       127  POPC      C1             22.9390526189       31.7302855538      -18.9438934124  MEMB      121             0.0000000000
     16036       127  POPC      HA             22.8273539221       32.8328018439      -19.0009997823  MEMB      121             0.0000000000
     16037       127  POPC      HB             23.7132413646       31.4737787887      -19.7070912166  MEMB      121             0.0000000000
     16038       127  POPC      C2             23.4670473117       31.4215402038      -17.5224412713  MEMB      121             0.0000000000
     16039       127  POPC      HS             23.7835145896       30.3513798846      -17.5644666348  MEMB      121             0.0000000000
     16040       127  POPC      O21            22.4039414313       31.6723291660      -16.5654989813  MEMB      121             0.0000000000
     16041       127  POPC      C21            22.5127975715       30.8367866206      -15.5266516729  MEMB      121             0.0000000000
     16042       127  POPC      O22            23.3206583865       29.9368056262      -15.4329641262  MEMB      121             0.0000000000
     16043       127  POPC      C22            21.5328672064       31.2547750033      -14.4452800930  MEMB      121             0.0000000000
     16044       127  POPC      H2R            20.5010649218       31.0730094387      -14.8048134343  MEMB      121             0.0000000000
     16045       127  POPC      H2S            21.6764389162       32.3456200048      -14.2871603629  MEMB      121             0.0000000000
     16046       127  POPC      C3             24.7310580101       32.2741680091      -17.1992330334  MEMB      121             0.0000000000
     16047       127  POPC      HX             24.5428966716       33.3242903860      -17.5069302441  MEMB      121             0.0000000000
     16048       127  POPC      HY             25.5499796228       31.8900382825      -17.8512323287  MEMB      121             0.0000000000
     16049       127  POPC      O31            25.1656419624       32.1652322052      -15.8297952530  MEMB      121             0.0000000000
     16050       127  POPC      C31            25.0400795637       33.2291768721      -15.0402006149  MEMB      121             0.0000000000
     16051       127  POPC      O32            24.3876262592       34.2268164701      -15.2821298775  MEMB      121             0.0000000000
     16052       127  POPC      C32            25.8807223529       33.0483797073      -13.7925293628  MEMB      121             0.0000000000
     16053       127  POPC      H2X            25.9498070596       34.0263742263      -13.2716143269  MEMB      121             0.0000000000
     16054       127  POPC      H2Y            26.8971089298       32.7288630316      -14.0968592347  MEMB      121             0.0000000000
     16055       127  POPC      C23            21.7939577637       30.5304667164      -13.1001625189  MEMB      121             0.0000000000
     16056       127  POPC      H3R            21.4395903503       31.2147675607      -12.2932444852  MEMB      121             0.0000000000
     16057       127  POPC      H3S            22.8763456720       30.3624380972      -12.9154318313  MEMB      121             0.0000000000
     16058       127  POPC      C24            21.0236713471       29.2094711777      -12.9374151844  MEMB      121             0.0000000000
     16059       127  POPC      H4R            20.0850314686       29.2431858633      -13.5337130438  MEMB      121             0.0000000000
     16060       127  POPC      H4S            20.7413931831       29.1307392073      -11.8626878257  MEMB      121             0.0000000000
     16061       127  POPC      C25            21.8438975727       27.9597048466      -13.3092693674  MEMB      121             0.0000000000
     16062       127  POPC      H5R            22.7288235490       27.9034515208      -12.6394884364  MEMB      121             0.0000000000
     16063       127  POPC      H5S            22.2330891876       28.0690472696      -14.3462153755  MEMB      121             0.0000000000
     16064       127  POPC      C26            21.0345629074       26.6522664378      -13.2452584587  MEMB      121             0.0000000000
     16065       127  POPC      H6R            21.6521813549       25.7992696697      -13.6010423018  MEMB      121             0.0000000000
     16066       127  POPC      H6S            20.1925908896       26.7711337054      -13.9662754274  MEMB      121             0.0000000000
     16067       127  POPC      C27            20.4405625790       26.3113615848      -11.8645967300  MEMB      121             0.0000000000
     16068       127  POPC      H7R            19.5465611375       25.6750399058      -12.0270465153  MEMB      121             0.0000000000
     16069       127  POPC      H7S            20.0792544636       27.2295184589      -11.3612017715  MEMB      121             0.0000000000
     16070       127  POPC      C28            21.3521415237       25.4999504869      -10.9281981331  MEMB      121             0.0000000000
     16071       127  POPC      H8R            21.6724189810       24.5760553826      -11.4586710828  MEMB      121             0.0000000000
     16072       127  POPC      H8S            20.7412867838       25.1653211763      -10.0579663659  MEMB      121             0.0000000000
     16073       127  POPC      C29            22.5509456525       26.2653259216      -10.4469608434  MEMB      121             0.0000000000
     16074       127  POPC      H91            23.4811995184       26.0435151525      -10.9856802881  MEMB      121             0.0000000000
     16075       127  POPC      C210           22.5631557966       27.1958098068       -9.4789078714  MEMB      121             0.0000000000
     16076       127  POPC      H101           23.5286298174       27.6386300603       -9.1938023223  MEMB      121             0.0000000000
     16077       127  POPC      C211           21.3777479669       27.6683761522       -8.6731845391  MEMB      121             0.0000000000
     16078       127  POPC      H11R           20.4183840520       27.3848494052       -9.1621827392  MEMB      121             0.0000000000
     16079       127  POPC      H11S           21.3814338019       28.7784819916       -8.5932104651  MEMB      121             0.0000000000
     16080       127  POPC      C212           21.3742797943       27.0581184986       -7.2632010972  MEMB      121             0.0000000000
     16081       127  POPC      H12R           21.4276514382       25.9475874928       -7.3556973132  MEMB      121             0.0000000000
     16082       127  POPC      H12S           20.4077360319       27.2906789425       -6.7608249637  MEMB      121             0.0000000000
     16083       127  POPC      C213           22.5231857579       27.5510618064       -6.3694802126  MEMB      121             0.0000000000
     16084       127  POPC      H13R           22.3821130042       28.6179280317       -6.0915511225  MEMB      121             0.0000000000
     16085       127  POPC      H13S           23.4815787331       27.4769094438       -6.9329024478  MEMB      121             0.0000000000
     16086       127  POPC      C214           22.6634965706       26.6788789503       -5.1178218638  MEMB      121             0.0000000000
     16087       127  POPC      H14R           23.7076970876       26.7252697512       -4.7461001823  MEMB      121             0.0000000000
     16088       127  POPC      H14S           22.4831914585       25.6271914079       -5.4256947816  MEMB      121             0.0000000000
     16089       127  POPC      C215           21.7080592349       27.0419682778       -3.9713084890  MEMB      121             0.0000000000
     16090       127  POPC      H15R           20.6859557455       27.2078406141       -4.3765132902  MEMB      121             0.0000000000
     16091       127  POPC      H15S           22.0469760949       27.9897606266       -3.4983544767  MEMB      121             0.0000000000
     16092       127  POPC      C216           21.6519963615       25.9170285927       -2.9253830528  MEMB      121             0.0000000000
     16093       127  POPC      H16R           22.6938920870       25.5954298811       -2.7037040572  MEMB      121             0.0000000000
     16094       127  POPC      H16S           21.1261344587       25.0507970964       -3.3816710867  MEMB      121             0.0000000000
     16095       127  POPC      C217           20.9725428180       26.2714444319       -1.5941766211  MEMB      121             0.0000000000
     16096       127  POPC      H17R           21.6391214656       26.9758152283       -1.0507964707  MEMB      121             0.0000000000
     16097       127  POPC      H17S           20.9057058994       25.3467867871       -0.9772347390  MEMB      121             0.0000000000
     16098       127  POPC      C218           19.5809544794       26.8940353708       -1.7096663470  MEMB      121             0.0000000000
     16099       127  POPC      H18R           19.6255929478       27.8298187470       -2.3076668481  MEMB      121             0.0000000000
     16100       127  POPC      H18S           19.1775127668       27.1440862243       -0.7056684740  MEMB      121             0.0000000000
     16101       127  POPC      H18T           18.8695680303       26.1967069573       -2.1947932770  MEMB      121             0.0000000000
     16102       127  POPC      C33            25.2463552549       32.0007406959      -12.8674195117  MEMB      121             0.0000000000
     16103       127  POPC      H3X            25.2029409820       31.0235523687      -13.4058251291  MEMB      121             0.0000000000
     16104       127  POPC      H3Y            24.2034845702       32.2952497435      -12.6097561615  MEMB      121             0.0000000000
     16105       127  POPC      C34            26.0370670954       31.8188451979      -11.5705635959  MEMB      121             0.0000000000
     16106       127  POPC      H4X            25.8484531589       32.6782486552      -10.8934447223  MEMB      121             0.0000000000
     16107       127  POPC      H4Y            27.1197846950       31.8356178766      -11.8079126535  MEMB      121             0.0000000000
     16108       127  POPC      C35            25.6922957590       30.4904128732      -10.8857337127  MEMB      121             0.0000000000
     16109       127  POPC      H5X            26.5253393531       30.1785989389      -10.2190648418  MEMB      121             0.0000000000
     16110       127  POPC      H5Y            25.5992659526       29.7010315050      -11.6662232914  MEMB      121             0.0000000000
     16111       127  POPC      C36            24.3728504744       30.5429241678      -10.1053796290  MEMB      121             0.0000000000
     16112       127  POPC      H6X            24.0936329104       29.5052180283       -9.8302539044  MEMB      121             0.0000000000
     16113       127  POPC      H6Y            23.5682215724       30.9312084462      -10.7676682841  MEMB      121             0.0000000000
     16114       127  POPC      C37            24.4274997710       31.3855507838       -8.8196108953  MEMB      121             0.0000000000
     16115       127  POPC      H7X            23.4022062151       31.4459686819       -8.3883721227  MEMB      121             0.0000000000
     16116       127  POPC      H7Y            24.7354202075       32.4245417377       -9.0660372552  MEMB      121             0.0000000000
     16117       127  POPC      C38            25.3717731717       30.8163794815       -7.7511328227  MEMB      121             0.0000000000
     16118       127  POPC      H8X            26.3574920962       30.5613349893       -8.1978115750  MEMB      121             0.0000000000
     16119       127  POPC      H8Y            24.9347112888       29.8743635364       -7.3491224156  MEMB      121             0.0000000000
     16120       127  POPC      C39            25.6383632393       31.7864224355       -6.5935728453  MEMB      121             0.0000000000
     16121       127  POPC      H9X            26.2079010984       32.6656311595       -6.9679880675  MEMB      121             0.0000000000
     16122       127  POPC      H9Y            26.2919407125       31.2640968597       -5.8612556865  MEMB      121             0.0000000000
     16123       127  POPC      C310           24.3684611497       32.2802819666       -5.8833143276  MEMB      121             0.0000000000
     16124       127  POPC      H10X           23.6320330093       31.4534896761       -5.7829861472  MEMB      121             0.0000000000
     16125       127  POPC      H10Y           23.8857946953       33.0534523474       -6.5180606002  MEMB      121             0.0000000000
     16126       127  POPC      C311           24.6689158196       32.8660821568       -4.4955253409  MEMB      121             0.0000000000
     16127       127  POPC      H11X           24.0206414128       33.7533916939       -4.3221825723  MEMB      121             0.0000000000
     16128       127  POPC      H11Y           25.7253426348       33.2138340789       -4.4624820739  MEMB      121             0.0000000000
     16129       127  POPC      C312           24.4039266284       31.8786744372       -3.3501346660  MEMB      121             0.0000000000
     16130       127  POPC      H12X           23.3034993944       31.7304622040       -3.2601175122  MEMB      121             0.0000000000
     16131       127  POPC      H12Y           24.7618048759       32.3227249277       -2.3936427116  MEMB      121             0.0000000000
     16132       127  POPC      C313           25.0603850848       30.5066789703       -3.5488055972  MEMB      121             0.0000000000
     16133       127  POPC      H13X           26.1611665899       30.6248159205       -3.6331883848  MEMB      121             0.0000000000
     16134       127  POPC      H13Y           24.7066251028       30.0384897782       -4.4938082687  MEMB      121             0.0000000000
     16135       127  POPC      C314           24.7280837295       29.5485565377       -2.4075776718  MEMB      121             0.0000000000
     16136       127  POPC      H14X           23.6250736106       29.4183861373       -2.3690320787  MEMB      121             0.0000000000
     16137       127  POPC      H14Y           25.0510352762       29.9959251841       -1.4413549164  MEMB      121             0.0000000000
     16138       127  POPC      C315           25.3765834528       28.1775939820       -2.5927725044  MEMB      121             0.0000000000
     16139       127  POPC      H15X           26.4789673206       28.3024458435       -2.6482940817  MEMB      121             0.0000000000
     16140       127  POPC      H15Y           25.0593740078       27.7621934091       -3.5716024032  MEMB      121             0.0000000000
     16141       127  POPC      C316           25.0082438779       27.2030981297       -1.4763238285  MEMB      121             0.0000000000
     16142       127  POPC      H16X           23.9082025278       27.0547301450       -1.4430766554  MEMB      121             0.0000000000
     16143       127  POPC      H16Y           25.3248884380       27.6041250637       -0.4894136179  MEMB      121             0.0000000000
     16144       127  POPC      H16Z           25.4924421316       26.2165160133       -1.6342087094  MEMB      121             0.0000000000
     16145       128  POPC      N              16.4993994911       35.8970298713      -19.2276112074  MEMB      122             0.0000000000
     16146       128  POPC      C12            15.8909713641       34.6297644549      -19.8113945452  MEMB      122             0.0000000000
     16147       128  POPC      H12A           15.1961873300       34.9239728775      -20.5958358665  MEMB      122             0.0000000000
     16148       128  POPC      H12B           15.2960785926       34.1370104371      -19.0492743122  MEMB      122             0.0000000000
     16149       128  POPC      C13            15.4008997692       36.8381875684      -18.8655969008  MEMB      122             0.0000000000
     16150       128  POPC      H13A           14.8313186001       37.0547742881      -19.7672263880  MEMB      122             0.0000000000
     16151       128  POPC      H13B           14.7319609367       36.3999462287      -18.1359850778  MEMB      122             0.0000000000
     16152       128  POPC      H13C           15.8306679140       37.7596527631      -18.4887185557  MEMB      122             0.0000000000
     16153       128  POPC      C14            17.3165900116       35.6001493975      -18.0132977130  MEMB      122             0.0000000000
     16154       128  POPC      H14A           17.9875864764       34.7696913789      -18.2222646082  MEMB      122             0.0000000000
     16155       128  POPC      H14B           17.8542994135       36.4787563104      -17.6872206206  MEMB      122             0.0000000000
     16156       128  POPC      H14C           16.6978172343       35.2316277676      -17.2012309015  MEMB      122             0.0000000000
     16157       128  POPC      C15            17.3538473796       36.5897008853      -20.2325411376  MEMB      122             0.0000000000
     16158       128  POPC      H15A           18.1395557946       35.9197765026      -20.5508976937  MEMB      122             0.0000000000
     16159       128  POPC      H15B           17.8226473206       37.4804771089      -19.7994906315  MEMB      122             0.0000000000
     16160       128  POPC      H15C           16.7530222089       36.8932410330      -21.0882118254  MEMB      122             0.0000000000
     16161       128  POPC      C11            16.8325612464       33.5426160623      -20.3949362075  MEMB      122             0.0000000000
     16162       128  POPC      H11A           17.4271939190       33.9765585794      -21.2078162062  MEMB      122             0.0000000000
     16163       128  POPC      H11B           16.2355699077       32.7280652215      -20.8635211823  MEMB      122             0.0000000000
     16164       128  POPC      P              17.3117669401       32.1017072384      -18.2398918883  MEMB      122             0.0000000000
     16165       128  POPC      O13            18.0259513738       32.7416369166      -17.1143966300  MEMB      122             0.0000000000
     16166       128  POPC      O14            17.6531706437       30.7072992493      -18.5571204949  MEMB      122             0.0000000000
     16167       128  POPC      O12            17.7469490261       33.0173793316      -19.4542961764  MEMB      122             0.0000000000
     16168       128  POPC      O11            15.7444748999       32.2626702994      -18.1224030478  MEMB      122             0.0000000000
     16169       128  POPC      C1             14.8869943613       31.4075007685      -18.9057744775  MEMB      122             0.0000000000
     16170       128  POPC      HA             15.4161289922       30.5728977241      -19.4205625696  MEMB      122             0.0000000000
     16171       128  POPC      HB             14.4304241459       32.0225923405      -19.7141169468  MEMB      122             0.0000000000
     16172       128  POPC      C2             13.6961113723       30.7830064448      -18.1080552301  MEMB      122             0.0000000000
     16173       128  POPC      HS             12.9018432315       30.5452444363      -18.8529211695  MEMB      122             0.0000000000
     16174       128  POPC      O21            13.1870374445       31.6757463687      -17.1099617726  MEMB      122             0.0000000000
     16175       128  POPC      C21            12.7003720869       32.8036974726      -17.6131517145  MEMB      122             0.0000000000
     16176       128  POPC      O22            12.3472242971       32.9674009094      -18.7676292991  MEMB      122             0.0000000000
     16177       128  POPC      C22            12.5219778420       33.8544224909      -16.5138322825  MEMB      122             0.0000000000
     16178       128  POPC      H2R            11.4333438406       34.0615662117      -16.4360361259  MEMB      122             0.0000000000
     16179       128  POPC      H2S            13.0312431358       34.7744086610      -16.8639440512  MEMB      122             0.0000000000
     16180       128  POPC      C3             14.0393319461       29.4340524075      -17.4095503593  MEMB      122             0.0000000000
     16181       128  POPC      HX             14.4118646839       28.7599366583      -18.2078391962  MEMB      122             0.0000000000
     16182       128  POPC      HY             13.1019251922       28.9774270483      -17.0223074687  MEMB      122             0.0000000000
     16183       128  POPC      O31            15.0490142635       29.5467408614      -16.3867317527  MEMB      122             0.0000000000
     16184       128  POPC      C31            14.5915409836       29.8594591215      -15.1681018334  MEMB      122             0.0000000000
     16185       128  POPC      O32            13.4161119703       29.8935137424      -14.8469030402  MEMB      122             0.0000000000
     16186       128  POPC      C32            15.7780986300       30.1794654012      -14.2571590756  MEMB      122             0.0000000000
     16187       128  POPC      H2X            16.6083529295       29.4919926558      -14.5233600941  MEMB      122             0.0000000000
     16188       128  POPC      H2Y            15.4854114903       29.9867247912      -13.2045156067  MEMB      122             0.0000000000
     16189       128  POPC      C23            13.0854810369       33.4236440881      -15.1398261690  MEMB      122             0.0000000000
     16190       128  POPC      H3R            14.1632372342       33.1736330680      -15.2588085394  MEMB      122             0.0000000000
     16191       128  POPC      H3S            12.5615918007       32.5034327686      -14.7949606766  MEMB      122             0.0000000000
     16192       128  POPC      C24            12.9605427025       34.5022565799      -14.0545468726  MEMB      122             0.0000000000
     16193       128  POPC      H4R            11.8860704139       34.6740612508      -13.8367357619  MEMB      122             0.0000000000
     16194       128  POPC      H4S            13.3945120651       35.4541276376      -14.4357961176  MEMB      122             0.0000000000
     16195       128  POPC      C25            13.6747718512       34.1280857150      -12.7425707668  MEMB      122             0.0000000000
     16196       128  POPC      H5R            13.5470865322       34.9580002024      -12.0137015876  MEMB      122             0.0000000000
     16197       128  POPC      H5S            14.7651436460       34.0318055373      -12.9359410143  MEMB      122             0.0000000000
     16198       128  POPC      C26            13.1521788030       32.8352666663      -12.0918598376  MEMB      122             0.0000000000
     16199       128  POPC      H6R            13.3223654673       31.9821963909      -12.7852356481  MEMB      122             0.0000000000
     16200       128  POPC      H6S            12.0571652914       32.9281450959      -11.9179256824  MEMB      122             0.0000000000
     16201       128  POPC      C27            13.8476013522       32.5054839434      -10.7606393135  MEMB      122             0.0000000000
     16202       128  POPC      H7R            13.6654230502       33.3257109712      -10.0314858285  MEMB      122             0.0000000000
     16203       128  POPC      H7S            14.9423484558       32.4578144933      -10.9444706914  MEMB      122             0.0000000000
     16204       128  POPC      C28            13.3780509952       31.1681854595      -10.1570759241  MEMB      122             0.0000000000
     16205       128  POPC      H8R            13.3881366606       30.3969971358      -10.9597386365  MEMB      122             0.0000000000
     16206       128  POPC      H8S            12.3179309168       31.2790827249       -9.8354241244  MEMB      122             0.0000000000
     16207       128  POPC      C29            14.2747968230       30.7217273691       -9.0274680553  MEMB      122             0.0000000000
     16208       128  POPC      H91            15.1739185122       30.1715850552       -9.3469609691  MEMB      122             0.0000000000
     16209       128  POPC      C210           14.0998201378       30.9491538970       -7.7145745613  MEMB      122             0.0000000000
     16210       128  POPC      H101           14.8454686659       30.5519842695       -7.0094878340  MEMB      122             0.0000000000
     16211       128  POPC      C211           12.9677541340       31.7021126818       -7.0675918796  MEMB      122             0.0000000000
     16212       128  POPC      H11R           12.6374650482       31.1532764006       -6.1570749423  MEMB      122             0.0000000000
     16213       128  POPC      H11S           12.0825925982       31.7706317484       -7.7399753862  MEMB      122             0.0000000000
     16214       128  POPC      C212           13.3332000843       33.1385781302       -6.6569917953  MEMB      122             0.0000000000
     16215       128  POPC      H12R           12.4649912704       33.5488048083       -6.0908029685  MEMB      122             0.0000000000
     16216       128  POPC      H12S           13.4743465385       33.7691565624       -7.5640760321  MEMB      122             0.0000000000
     16217       128  POPC      C213           14.5828893303       33.2467680637       -5.7743078638  MEMB      122             0.0000000000
     16218       128  POPC      H13R           15.4933867003       33.1896526069       -6.4112431850  MEMB      122             0.0000000000
     16219       128  POPC      H13S           14.6075546304       32.3895485387       -5.0643132420  MEMB      122             0.0000000000
     16220       128  POPC      C214           14.6076295021       34.5420113844       -4.9546028235  MEMB      122             0.0000000000
     16221       128  POPC      H14R           13.7408409389       34.5207783946       -4.2592979601  MEMB      122             0.0000000000
     16222       128  POPC      H14S           14.4758012801       35.4206851960       -5.6231440441  MEMB      122             0.0000000000
     16223       128  POPC      C215           15.9096439845       34.6977330038       -4.1583605926  MEMB      122             0.0000000000
     16224       128  POPC      H15R           16.6656683274       35.1710867146       -4.8240392004  MEMB      122             0.0000000000
     16225       128  POPC      H15S           16.3010945764       33.6921204090       -3.8839639218  MEMB      122             0.0000000000
     16226       128  POPC      C216           15.7594861057       35.5286055788       -2.8741430975  MEMB      122             0.0000000000
     16227       128  POPC      H16R           15.2189022547       36.4757976503       -3.0924251632  MEMB      122             0.0000000000
     16228       128  POPC      H16S           16.7836114735       35.8022343878       -2.5312325662  MEMB      122             0.0000000000
     16229       128  POPC      C217           15.0686906337       34.7691319682       -1.7279595869  MEMB      122             0.0000000000
     16230       128  POPC      H17R           15.6795396322       34.8972718554       -0.8045516145  MEMB      122             0.0000000000
     16231       128  POPC      H17S           15.0575471808       33.6789930666       -1.9579026385  MEMB      122             0.0000000000
     16232       128  POPC      C218           13.6463830207       35.2476495225       -1.4254116712  MEMB      122             0.0000000000
     16233       128  POPC      H18R           13.6469714366       36.3284238294       -1.1697030547  MEMB      122             0.0000000000
     16234       128  POPC      H18S           13.2204603647       34.6890522421       -0.5659924387  MEMB      122             0.0000000000
     16235       128  POPC      H18T           12.9781464592       35.1008815858       -2.2988601912  MEMB      122             0.0000000000
     16236       128  POPC      C33            16.2497834287       31.6426416118      -14.4242660953  MEMB      122             0.0000000000
     16237       128  POPC      H3X            15.6868573221       32.2989019116      -13.7306675724  MEMB      122             0.0000000000
     16238       128  POPC      H3Y            16.0247321374       31.9935408699      -15.4592023292  MEMB      122             0.0000000000
     16239       128  POPC      C34            17.7604101507       31.8407707598      -14.2321610669  MEMB      122             0.0000000000
     16240       128  POPC      H4X            18.0213698612       32.8590270687      -14.6025782901  MEMB      122             0.0000000000
     16241       128  POPC      H4Y            18.2874580439       31.1068512377      -14.8816307635  MEMB      122             0.0000000000
     16242       128  POPC      C35            18.2413238631       31.7239413457      -12.7849428450  MEMB      122             0.0000000000
     16243       128  POPC      H5X            19.3515397657       31.6787048991      -12.7685221728  MEMB      122             0.0000000000
     16244       128  POPC      H5Y            17.8532311739       30.7825193508      -12.3378411370  MEMB      122             0.0000000000
     16245       128  POPC      C36            17.8388528427       32.9162774735      -11.9088343184  MEMB      122             0.0000000000
     16246       128  POPC      H6X            16.7331727156       32.9778248634      -11.8677633961  MEMB      122             0.0000000000
     16247       128  POPC      H6Y            18.2072572190       33.8640820916      -12.3587295960  MEMB      122             0.0000000000
     16248       128  POPC      C37            18.4091022006       32.7517200411      -10.4973299321  MEMB      122             0.0000000000
     16249       128  POPC      H7X            19.5068300714       32.9297509977      -10.5158006861  MEMB      122             0.0000000000
     16250       128  POPC      H7Y            18.2426013705       31.6894083358      -10.2122749436  MEMB      122             0.0000000000
     16251       128  POPC      C38            17.7529125860       33.6549022053       -9.4469368487  MEMB      122             0.0000000000
     16252       128  POPC      H8X            16.6543113383       33.4683783128       -9.4551317577  MEMB      122             0.0000000000
     16253       128  POPC      H8Y            17.9075677849       34.7218879564       -9.7094139291  MEMB      122             0.0000000000
     16254       128  POPC      C39            18.2844879800       33.3916265930       -8.0290526501  MEMB      122             0.0000000000
     16255       128  POPC      H9X            17.7768864846       34.0926343614       -7.3281342576  MEMB      122             0.0000000000
     16256       128  POPC      H9Y            19.3767674730       33.5945340764       -7.9854690509  MEMB      122             0.0000000000
     16257       128  POPC      C310           17.9942565742       31.9553523778       -7.5771850922  MEMB      122             0.0000000000
     16258       128  POPC      H10X           18.5536547600       31.2257220711       -8.2016253924  MEMB      122             0.0000000000
     16259       128  POPC      H10Y           16.9067727915       31.7691128068       -7.7334939028  MEMB      122             0.0000000000
     16260       128  POPC      C311           18.3297578508       31.6761365585       -6.1120641425  MEMB      122             0.0000000000
     16261       128  POPC      H11X           17.8794325662       32.4723525877       -5.4756549690  MEMB      122             0.0000000000
     16262       128  POPC      H11Y           19.4313298859       31.6971391042       -5.9641902901  MEMB      122             0.0000000000
     16263       128  POPC      C312           17.7584077958       30.3196840544       -5.6885128979  MEMB      122             0.0000000000
     16264       128  POPC      H12X           18.1228653415       29.5133594614       -6.3626265547  MEMB      122             0.0000000000
     16265       128  POPC      H12Y           16.6514193267       30.3785035150       -5.8015749675  MEMB      122             0.0000000000
     16266       128  POPC      C313           18.0743457018       29.9631549279       -4.2369207713  MEMB      122             0.0000000000
     16267       128  POPC      H13X           17.8782214529       30.8685205989       -3.6208984468  MEMB      122             0.0000000000
     16268       128  POPC      H13Y           19.1533037207       29.7184271182       -4.1179607842  MEMB      122             0.0000000000
     16269       128  POPC      C314           17.2086397143       28.7976432858       -3.7380416248  MEMB      122             0.0000000000
     16270       128  POPC      H14X           17.7341137710       27.8399073579       -3.9522734309  MEMB      122             0.0000000000
     16271       128  POPC      H14Y           16.2456733632       28.7794890314       -4.2966010490  MEMB      122             0.0000000000
     16272       128  POPC      C315           16.8758195167       28.9089773111       -2.2482845594  MEMB      122             0.0000000000
     16273       128  POPC      H15X           17.8139384331       29.1015854423       -1.6788389636  MEMB      122             0.0000000000
     16274       128  POPC      H15Y           16.4659448090       27.9354958582       -1.8928727725  MEMB      122             0.0000000000
     16275       128  POPC      C316           15.8666410504       30.0138939876       -1.9343457036  MEMB      122             0.0000000000
     16276       128  POPC      H16X           15.7947393282       30.1352948389       -0.8358784162  MEMB      122             0.0000000000
     16277       128  POPC      H16Y           14.8620565361       29.7622567866       -2.3356456076  MEMB      122             0.0000000000
     16278       128  POPC      H16Z           16.1781983750       30.9876879388       -2.3682606441  MEMB      122             0.0000000000
     16279       129  POPC      N             -31.3675797069      -15.1439694328      -20.3676342995  MEMB      123             0.0000000000
     16280       129  POPC      C12           -31.4690315234      -16.0351523310      -19.1244310295  MEMB      123             0.0000000000
     16281       129  POPC      H12A          -31.9635620745      -15.5126541814      -18.3123105404  MEMB      123             0.0000000000
     16282       129  POPC      H12B          -30.4791015058      -16.2936489284      -18.7668889995  MEMB      123             0.0000000000
     16283       129  POPC      C13           -32.7439458424      -14.8157964988      -20.8874062857  MEMB      123             0.0000000000
     16284       129  POPC      H13A          -32.7705313243      -14.2987302996      -21.8367460232  MEMB      123             0.0000000000
     16285       129  POPC      H13B          -33.3138077137      -15.7474619742      -20.9956845402  MEMB      123             0.0000000000
     16286       129  POPC      H13C          -33.3240786248      -14.2450086137      -20.1686750885  MEMB      123             0.0000000000
     16287       129  POPC      C14           -30.6293667336      -13.8911796381      -20.0808512642  MEMB      123             0.0000000000
     16288       129  POPC      H14A          -31.1820238038      -13.2484013144      -19.3995484023  MEMB      123             0.0000000000
     16289       129  POPC      H14B          -29.6434204174      -14.1059518732      -19.6949390473  MEMB      123             0.0000000000
     16290       129  POPC      H14C          -30.4744864857      -13.3318495418      -20.9975867576  MEMB      123             0.0000000000
     16291       129  POPC      C15           -30.6069357376      -15.9418162956      -21.3837428423  MEMB      123             0.0000000000
     16292       129  POPC      H15A          -30.6127910630      -15.4665417007      -22.3488356495  MEMB      123             0.0000000000
     16293       129  POPC      H15B          -31.0924698344      -16.9091190805      -21.4830396628  MEMB      123             0.0000000000
     16294       129  POPC      H15C          -29.5873028498      -16.1602895962      -21.0689710455  MEMB      123             0.0000000000
     16295       129  POPC      C11           -32.2319671880      -17.3738374181      -19.2799608799  MEMB      123             0.0000000000
     16296       129  POPC      H11A          -31.9985741196      -18.0128792384      -18.3889174837  MEMB      123             0.0000000000
     16297       129  POPC      H11B          -31.8638177224      -17.9543446830      -20.1504519011  MEMB      123             0.0000000000
     16298       129  POPC      P             -34.5612197270      -17.1826033435      -18.1681301284  MEMB      123             0.0000000000
     16299       129  POPC      O13           -34.6434692591      -18.6139930499      -17.7778062217  MEMB      123             0.0000000000
     16300       129  POPC      O14           -35.8220120696      -16.4887848447      -18.4929223868  MEMB      123             0.0000000000
     16301       129  POPC      O12           -33.6286580644      -17.1256080299      -19.4439393754  MEMB      123             0.0000000000
     16302       129  POPC      O11           -33.7351214240      -16.3017626183      -17.1239989761  MEMB      123             0.0000000000
     16303       129  POPC      C1            -33.9462470691      -14.8803280402      -17.0949844004  MEMB      123             0.0000000000
     16304       129  POPC      HA            -35.0385000430      -14.6360360696      -17.1147145146  MEMB      123             0.0000000000
     16305       129  POPC      HB            -33.5019021276      -14.3997708652      -17.9906861762  MEMB      123             0.0000000000
     16306       129  POPC      C2            -33.4125307745      -14.1896903232      -15.7928408930  MEMB      123             0.0000000000
     16307       129  POPC      HS            -33.7930922832      -13.1403560234      -15.8126157842  MEMB      123             0.0000000000
     16308       129  POPC      O21           -31.9819097461      -14.1734993785      -15.6669091819  MEMB      123             0.0000000000
     16309       129  POPC      C21           -31.2677461167      -13.4888755064      -16.5072871293  MEMB      123             0.0000000000
     16310       129  POPC      O22           -31.6671992140      -12.8312440952      -17.4563597594  MEMB      123             0.0000000000
     16311       129  POPC      C22           -29.7868510101      -13.6324141450      -16.1262474384  MEMB      123             0.0000000000
     16312       129  POPC      H2R           -29.3748013045      -12.6066285201      -16.0652277736  MEMB      123             0.0000000000
     16313       129  POPC      H2S           -29.2771443811      -14.1844375081      -16.9418892481  MEMB      123             0.0000000000
     16314       129  POPC      C3            -33.9908851086      -14.8440241576      -14.4976326613  MEMB      123             0.0000000000
     16315       129  POPC      HX            -35.0648705238      -15.0067302279      -14.6828599417  MEMB      123             0.0000000000
     16316       129  POPC      HY            -33.8706964393      -14.1165617952      -13.6612137963  MEMB      123             0.0000000000
     16317       129  POPC      O31           -33.3913169280      -16.1113315472      -14.1680023426  MEMB      123             0.0000000000
     16318       129  POPC      C31           -33.9086458423      -16.6751089425      -13.0728981393  MEMB      123             0.0000000000
     16319       129  POPC      O32           -34.7265413488      -16.1449561338      -12.3426194761  MEMB      123             0.0000000000
     16320       129  POPC      C32           -33.2086583437      -18.0145366061      -12.8402065756  MEMB      123             0.0000000000
     16321       129  POPC      H2X           -32.1326010958      -17.7743748806      -12.7207450394  MEMB      123             0.0000000000
     16322       129  POPC      H2Y           -33.3147661136      -18.6326329531      -13.7547014394  MEMB      123             0.0000000000
     16323       129  POPC      C23           -29.5402214176      -14.3702406875      -14.7827985102  MEMB      123             0.0000000000
     16324       129  POPC      H3R           -29.9142034339      -15.4181632867      -14.8514013164  MEMB      123             0.0000000000
     16325       129  POPC      H3S           -30.1093413828      -13.8674566500      -13.9663473955  MEMB      123             0.0000000000
     16326       129  POPC      C24           -28.0556332333      -14.4126386876      -14.4090666175  MEMB      123             0.0000000000
     16327       129  POPC      H4R           -27.6806713882      -13.3700643265      -14.3249988069  MEMB      123             0.0000000000
     16328       129  POPC      H4S           -27.4810094895      -14.9064119581      -15.2251190264  MEMB      123             0.0000000000
     16329       129  POPC      C25           -27.7632428337      -15.1564835168      -13.0941672805  MEMB      123             0.0000000000
     16330       129  POPC      H5R           -26.6714000245      -15.0709087047      -12.8923496005  MEMB      123             0.0000000000
     16331       129  POPC      H5S           -27.9855220859      -16.2409751052      -13.2125177900  MEMB      123             0.0000000000
     16332       129  POPC      C26           -28.5244416679      -14.6180303669      -11.8668456090  MEMB      123             0.0000000000
     16333       129  POPC      H6R           -29.5037472064      -15.1393609770      -11.7839147176  MEMB      123             0.0000000000
     16334       129  POPC      H6S           -28.7277588866      -13.5324230158      -12.0082440295  MEMB      123             0.0000000000
     16335       129  POPC      C27           -27.7188407802      -14.7919430843      -10.5648458449  MEMB      123             0.0000000000
     16336       129  POPC      H7R           -26.8470152410      -14.0986548580      -10.5773350529  MEMB      123             0.0000000000
     16337       129  POPC      H7S           -27.3134376678      -15.8263560338      -10.5502389264  MEMB      123             0.0000000000
     16338       129  POPC      C28           -28.5143997864      -14.5896103342       -9.2584450038  MEMB      123             0.0000000000
     16339       129  POPC      H8R           -27.8173586794      -14.7590014153       -8.4067578577  MEMB      123             0.0000000000
     16340       129  POPC      H8S           -29.2883252636      -15.3871927774       -9.2011393872  MEMB      123             0.0000000000
     16341       129  POPC      C29           -29.1815389476      -13.2410639332       -9.1741520618  MEMB      123             0.0000000000
     16342       129  POPC      H91           -29.8579312768      -13.0354243994      -10.0156638330  MEMB      123             0.0000000000
     16343       129  POPC      C210          -29.0434909928      -12.2970961453       -8.2219490202  MEMB      123             0.0000000000
     16344       129  POPC      H101          -29.6184447689      -11.3627735203       -8.3224669737  MEMB      123             0.0000000000
     16345       129  POPC      C211          -28.1759748444      -12.3562778838       -6.9914411161  MEMB      123             0.0000000000
     16346       129  POPC      H11R          -27.7126944717      -11.3605261554       -6.8081704429  MEMB      123             0.0000000000
     16347       129  POPC      H11S          -27.3364579827      -13.0789873381       -7.1060838475  MEMB      123             0.0000000000
     16348       129  POPC      C212          -28.9838734831      -12.7568418104       -5.7451952473  MEMB      123             0.0000000000
     16349       129  POPC      H12R          -29.8699209265      -12.0956799755       -5.6189176683  MEMB      123             0.0000000000
     16350       129  POPC      H12S          -28.3348087697      -12.6060698131       -4.8555260865  MEMB      123             0.0000000000
     16351       129  POPC      C213          -29.4287666799      -14.2232757491       -5.7925909234  MEMB      123             0.0000000000
     16352       129  POPC      H13R          -28.5682894662      -14.8511795745       -6.1203636550  MEMB      123             0.0000000000
     16353       129  POPC      H13S          -30.2316103998      -14.3349433215       -6.5569588095  MEMB      123             0.0000000000
     16354       129  POPC      C214          -29.9331450773      -14.7653229608       -4.4509648217  MEMB      123             0.0000000000
     16355       129  POPC      H14R          -30.3089068231      -15.7964395313       -4.6482929932  MEMB      123             0.0000000000
     16356       129  POPC      H14S          -30.7827649198      -14.1526399542       -4.0796781610  MEMB      123             0.0000000000
     16357       129  POPC      C215          -28.8396448224      -14.8570284696       -3.3739132470  MEMB      123             0.0000000000
     16358       129  POPC      H15R          -28.6965935646      -13.8673898472       -2.8885179080  MEMB      123             0.0000000000
     16359       129  POPC      H15S          -27.9004471742      -15.1116093142       -3.8997331474  MEMB      123             0.0000000000
     16360       129  POPC      C216          -29.1516517659      -15.9205949933       -2.3115933972  MEMB      123             0.0000000000
     16361       129  POPC      H16R          -29.4551951686      -16.8586416683       -2.8278239569  MEMB      123             0.0000000000
     16362       129  POPC      H16S          -30.0045449526      -15.5489712375       -1.7090717028  MEMB      123             0.0000000000
     16363       129  POPC      C217          -28.0466770692      -16.2669211562       -1.3106998066  MEMB      123             0.0000000000
     16364       129  POPC      H17R          -27.6890057566      -15.3324262665       -0.8223308456  MEMB      123             0.0000000000
     16365       129  POPC      H17S          -27.1922963529      -16.7211413409       -1.8570018055  MEMB      123             0.0000000000
     16366       129  POPC      C218          -28.5018964857      -17.2423019352       -0.2188836507  MEMB      123             0.0000000000
     16367       129  POPC      H18R          -27.7427706950      -18.0366291687       -0.0776791292  MEMB      123             0.0000000000
     16368       129  POPC      H18S          -29.4597436680      -17.7328947011       -0.4829153000  MEMB      123             0.0000000000
     16369       129  POPC      H18T          -28.6356550950      -16.7136853360        0.7476566440  MEMB      123             0.0000000000
     16370       129  POPC      C33           -33.7193130767      -18.7772950264      -11.5941781076  MEMB      123             0.0000000000
     16371       129  POPC      H3X           -34.4994932969      -19.4942918142      -11.9236550681  MEMB      123             0.0000000000
     16372       129  POPC      H3Y           -34.2087717456      -18.0918906221      -10.8666803001  MEMB      123             0.0000000000
     16373       129  POPC      C34           -32.6150384889      -19.5450803782      -10.8472058905  MEMB      123             0.0000000000
     16374       129  POPC      H4X           -32.1252916787      -20.2472845910      -11.5583775922  MEMB      123             0.0000000000
     16375       129  POPC      H4Y           -33.1007466400      -20.1609560570      -10.0567610800  MEMB      123             0.0000000000
     16376       129  POPC      C35           -31.5323319057      -18.6638710251      -10.1890552489  MEMB      123             0.0000000000
     16377       129  POPC      H5X           -30.9641399915      -18.1272261057      -10.9799474775  MEMB      123             0.0000000000
     16378       129  POPC      H5Y           -30.8020993755      -19.3207245913       -9.6655721312  MEMB      123             0.0000000000
     16379       129  POPC      C36           -32.0523572814      -17.6289830866       -9.1738633340  MEMB      123             0.0000000000
     16380       129  POPC      H6X           -32.7964888595      -16.9584840812       -9.6549141820  MEMB      123             0.0000000000
     16381       129  POPC      H6Y           -31.1968260479      -16.9894337847       -8.8577604627  MEMB      123             0.0000000000
     16382       129  POPC      C37           -32.6606714042      -18.2647107690       -7.9163229071  MEMB      123             0.0000000000
     16383       129  POPC      H7X           -31.9025465806      -18.9388731337       -7.4566278546  MEMB      123             0.0000000000
     16384       129  POPC      H7Y           -33.5377041693      -18.8904362188       -8.1963782371  MEMB      123             0.0000000000
     16385       129  POPC      C38           -33.1030781554      -17.2284817988       -6.8701342156  MEMB      123             0.0000000000
     16386       129  POPC      H8X           -33.9055333212      -16.5954504678       -7.3110937413  MEMB      123             0.0000000000
     16387       129  POPC      H8Y           -32.2482343071      -16.5611493766       -6.6183275317  MEMB      123             0.0000000000
     16388       129  POPC      C39           -33.6265560442      -17.8917237000       -5.5889627276  MEMB      123             0.0000000000
     16389       129  POPC      H9X           -32.9129667173      -17.7337592096       -4.7538699572  MEMB      123             0.0000000000
     16390       129  POPC      H9Y           -33.6649720408      -18.9934513535       -5.7684108414  MEMB      123             0.0000000000
     16391       129  POPC      C310          -35.0444079361      -17.4601207442       -5.1787687172  MEMB      123             0.0000000000
     16392       129  POPC      H10X          -35.3586333940      -18.1803518578       -4.3881162218  MEMB      123             0.0000000000
     16393       129  POPC      H10Y          -35.7395953424      -17.6001207784       -6.0322565456  MEMB      123             0.0000000000
     16394       129  POPC      C311          -35.1998638159      -16.0424671521       -4.5871337328  MEMB      123             0.0000000000
     16395       129  POPC      H11X          -35.7600379769      -15.4022714522       -5.2955398472  MEMB      123             0.0000000000
     16396       129  POPC      H11Y          -34.2023661781      -15.5786087041       -4.4797400945  MEMB      123             0.0000000000
     16397       129  POPC      C312          -35.9320542602      -16.1290237107       -3.2315345869  MEMB      123             0.0000000000
     16398       129  POPC      H12X          -35.4029995238      -16.9004221212       -2.6243805721  MEMB      123             0.0000000000
     16399       129  POPC      H12Y          -36.9517721994      -16.5291452604       -3.4292195863  MEMB      123             0.0000000000
     16400       129  POPC      C313          -36.0711365068      -14.8792444510       -2.3287417035  MEMB      123             0.0000000000
     16401       129  POPC      H13X          -35.7772759486      -15.1785794326       -1.2948331466  MEMB      123             0.0000000000
     16402       129  POPC      H13Y          -37.1494473582      -14.6129180640       -2.2761441829  MEMB      123             0.0000000000
     16403       129  POPC      C314          -35.2927059016      -13.6011338436       -2.6855886881  MEMB      123             0.0000000000
     16404       129  POPC      H14X          -35.6315270661      -13.2363968083       -3.6773759397  MEMB      123             0.0000000000
     16405       129  POPC      H14Y          -34.2043542965      -13.7746434967       -2.7764233705  MEMB      123             0.0000000000
     16406       129  POPC      C315          -35.4978648348      -12.5191340632       -1.6092600787  MEMB      123             0.0000000000
     16407       129  POPC      H15X          -35.0028317749      -12.8470079851       -0.6663644390  MEMB      123             0.0000000000
     16408       129  POPC      H15Y          -36.5874019033      -12.4407748432       -1.3888557845  MEMB      123             0.0000000000
     16409       129  POPC      C316          -34.9727987397      -11.1382545530       -2.0069714238  MEMB      123             0.0000000000
     16410       129  POPC      H16X          -35.4026396730      -10.8203048382       -2.9805637743  MEMB      123             0.0000000000
     16411       129  POPC      H16Y          -33.8657004225      -11.1494758503       -2.1013167533  MEMB      123             0.0000000000
     16412       129  POPC      H16Z          -35.2613988709      -10.3828041948       -1.2445290209  MEMB      123             0.0000000000
     16413       130  POPC      N             -17.9485813469       32.1308207154      -20.5990155653  MEMB      124             0.0000000000
     16414       130  POPC      C12           -17.8170676813       30.6179797016      -20.5557792435  MEMB      124             0.0000000000
     16415       130  POPC      H12A          -16.7711800203       30.3346555247      -20.5097817455  MEMB      124             0.0000000000
     16416       130  POPC      H12B          -18.1820502530       30.2330633901      -21.5055505910  MEMB      124             0.0000000000
     16417       130  POPC      C13           -19.3728126381       32.5762958920      -20.4675193663  MEMB      124             0.0000000000
     16418       130  POPC      H13A          -19.8058698926       32.2436378910      -19.5178085052  MEMB      124             0.0000000000
     16419       130  POPC      H13B          -19.4514111659       33.6454347051      -20.5252808125  MEMB      124             0.0000000000
     16420       130  POPC      H13C          -20.0022997095       32.1559744599      -21.2472466184  MEMB      124             0.0000000000
     16421       130  POPC      C14           -17.1890582335       32.7805152170      -19.4885166262  MEMB      124             0.0000000000
     16422       130  POPC      H14A          -17.3455235348       33.8557624811      -19.5066375124  MEMB      124             0.0000000000
     16423       130  POPC      H14B          -17.5184284581       32.3919166034      -18.5304292186  MEMB      124             0.0000000000
     16424       130  POPC      H14C          -16.1331016926       32.6104561525      -19.5968217138  MEMB      124             0.0000000000
     16425       130  POPC      C15           -17.4264793163       32.6319874466      -21.9020996254  MEMB      124             0.0000000000
     16426       130  POPC      H15A          -16.4012646937       32.3159702298      -22.0809032227  MEMB      124             0.0000000000
     16427       130  POPC      H15B          -17.4834860902       33.7082725256      -21.9329053849  MEMB      124             0.0000000000
     16428       130  POPC      H15C          -18.0108653555       32.2715463236      -22.7498566998  MEMB      124             0.0000000000
     16429       130  POPC      C11           -18.5872283139       29.8565547120      -19.4678963577  MEMB      124             0.0000000000
     16430       130  POPC      H11A          -18.4397247390       30.3709244535      -18.4862830971  MEMB      124             0.0000000000
     16431       130  POPC      H11B          -18.1870165779       28.8198113437      -19.3631221343  MEMB      124             0.0000000000
     16432       130  POPC      P             -21.1025331745       29.8683635801      -18.7931939017  MEMB      124             0.0000000000
     16433       130  POPC      O13           -22.2598504875       29.2467768638      -19.4758398357  MEMB      124             0.0000000000
     16434       130  POPC      O14           -21.2402014619       31.2560592425      -18.3075435126  MEMB      124             0.0000000000
     16435       130  POPC      O12           -19.9494464287       29.7887848654      -19.8797046763  MEMB      124             0.0000000000
     16436       130  POPC      O11           -20.4490402737       28.9672250453      -17.6423266875  MEMB      124             0.0000000000
     16437       130  POPC      C1            -21.2173802367       28.3107738652      -16.6324796833  MEMB      124             0.0000000000
     16438       130  POPC      HA            -21.1675062681       27.2153743597      -16.8320080301  MEMB      124             0.0000000000
     16439       130  POPC      HB            -22.2926928114       28.5834951136      -16.6866466184  MEMB      124             0.0000000000
     16440       130  POPC      C2            -20.7376193602       28.5007912607      -15.1331453828  MEMB      124             0.0000000000
     16441       130  POPC      HS            -21.2927368191       27.7038810459      -14.5814706611  MEMB      124             0.0000000000
     16442       130  POPC      O21           -21.0505507673       29.8212939425      -14.6245956922  MEMB      124             0.0000000000
     16443       130  POPC      C21           -21.3611650422       29.8642955443      -13.3218138922  MEMB      124             0.0000000000
     16444       130  POPC      O22           -21.5622612477       28.8846622169      -12.6222433001  MEMB      124             0.0000000000
     16445       130  POPC      C22           -21.4130541808       31.3116744909      -12.8186542512  MEMB      124             0.0000000000
     16446       130  POPC      H2R           -22.3377593013       31.7620462137      -13.2353035957  MEMB      124             0.0000000000
     16447       130  POPC      H2S           -20.5409278577       31.8593008712      -13.2294756723  MEMB      124             0.0000000000
     16448       130  POPC      C3            -19.2148743143       28.2461296879      -14.9079919291  MEMB      124             0.0000000000
     16449       130  POPC      HX            -18.6331692900       29.1738801535      -15.1196793292  MEMB      124             0.0000000000
     16450       130  POPC      HY            -18.8872685814       27.4948972605      -15.6586246342  MEMB      124             0.0000000000
     16451       130  POPC      O31           -18.9626836678       27.6879685738      -13.5921521224  MEMB      124             0.0000000000
     16452       130  POPC      C31           -18.6285549287       28.5358155310      -12.6245463488  MEMB      124             0.0000000000
     16453       130  POPC      O32           -18.4757960029       29.7385056668      -12.7371926772  MEMB      124             0.0000000000
     16454       130  POPC      C32           -18.4971709427       27.7822337233      -11.2976510463  MEMB      124             0.0000000000
     16455       130  POPC      H2X           -17.7419017541       28.3451736585      -10.7077181371  MEMB      124             0.0000000000
     16456       130  POPC      H2Y           -18.1124539953       26.7623309895      -11.4951748536  MEMB      124             0.0000000000
     16457       130  POPC      C23           -21.4201291599       31.4187617018      -11.2723282038  MEMB      124             0.0000000000
     16458       130  POPC      H3R           -20.3931549751       31.6633293104      -10.9227446969  MEMB      124             0.0000000000
     16459       130  POPC      H3S           -21.6941595052       30.4477622792      -10.8003691246  MEMB      124             0.0000000000
     16460       130  POPC      C24           -22.4291459326       32.4480737027      -10.7412970382  MEMB      124             0.0000000000
     16461       130  POPC      H4R           -23.4386101296       32.1512313948      -11.1128923261  MEMB      124             0.0000000000
     16462       130  POPC      H4S           -22.1987279184       33.4554490838      -11.1479829679  MEMB      124             0.0000000000
     16463       130  POPC      C25           -22.4714881562       32.4889027594       -9.2054544752  MEMB      124             0.0000000000
     16464       130  POPC      H5R           -22.5231738700       31.4356949275       -8.8459003540  MEMB      124             0.0000000000
     16465       130  POPC      H5S           -23.3982393633       32.9994594345       -8.8590633502  MEMB      124             0.0000000000
     16466       130  POPC      C26           -21.2558093715       33.1679567063       -8.5602232769  MEMB      124             0.0000000000
     16467       130  POPC      H6R           -21.4893430789       34.2332593382       -8.3437668307  MEMB      124             0.0000000000
     16468       130  POPC      H6S           -20.4100838058       33.1573427904       -9.2829878598  MEMB      124             0.0000000000
     16469       130  POPC      C27           -20.8070173100       32.4422470295       -7.2813924455  MEMB      124             0.0000000000
     16470       130  POPC      H7R           -20.5134379063       31.4049515075       -7.5648770295  MEMB      124             0.0000000000
     16471       130  POPC      H7S           -21.6737814304       32.3648514749       -6.5905577788  MEMB      124             0.0000000000
     16472       130  POPC      C28           -19.6468809823       33.1205835026       -6.5249261666  MEMB      124             0.0000000000
     16473       130  POPC      H8R           -19.3310461343       32.4454085314       -5.6978388171  MEMB      124             0.0000000000
     16474       130  POPC      H8S           -20.0376584351       34.0447071234       -6.0444268344  MEMB      124             0.0000000000
     16475       130  POPC      C29           -18.4732225299       33.4686120753       -7.4036580028  MEMB      124             0.0000000000
     16476       130  POPC      H91           -18.3996646303       34.5343263354       -7.6707897859  MEMB      124             0.0000000000
     16477       130  POPC      C210          -17.5815185490       32.6045602763       -7.9204846741  MEMB      124             0.0000000000
     16478       130  POPC      H101          -16.7964768803       32.9963443886       -8.5847843420  MEMB      124             0.0000000000
     16479       130  POPC      C211          -17.5624382883       31.1063073197       -7.7339214543  MEMB      124             0.0000000000
     16480       130  POPC      H11R          -17.5801980860       30.6186782413       -8.7351349620  MEMB      124             0.0000000000
     16481       130  POPC      H11S          -18.4596283512       30.7400411918       -7.1889834241  MEMB      124             0.0000000000
     16482       130  POPC      C212          -16.3088404466       30.6114473279       -6.9905178310  MEMB      124             0.0000000000
     16483       130  POPC      H12R          -15.4019503972       30.9675140078       -7.5272268320  MEMB      124             0.0000000000
     16484       130  POPC      H12S          -16.2914295623       29.4997451331       -7.0180377937  MEMB      124             0.0000000000
     16485       130  POPC      C213          -16.2222835912       31.0681753746       -5.5272137251  MEMB      124             0.0000000000
     16486       130  POPC      H13R          -16.3621718732       32.1707237884       -5.4700009821  MEMB      124             0.0000000000
     16487       130  POPC      H13S          -15.1953436796       30.8503649425       -5.1521956125  MEMB      124             0.0000000000
     16488       130  POPC      C214          -17.2297945861       30.3767797003       -4.5974810299  MEMB      124             0.0000000000
     16489       130  POPC      H14R          -17.0611246509       29.2773966116       -4.6241260993  MEMB      124             0.0000000000
     16490       130  POPC      H14S          -18.2694932463       30.5655947377       -4.9415143807  MEMB      124             0.0000000000
     16491       130  POPC      C215          -17.0654544539       30.8915221707       -3.1660652035  MEMB      124             0.0000000000
     16492       130  POPC      H15R          -17.2698335663       31.9860139017       -3.1565393213  MEMB      124             0.0000000000
     16493       130  POPC      H15S          -16.0061496861       30.7431075757       -2.8644335104  MEMB      124             0.0000000000
     16494       130  POPC      C216          -17.9551605162       30.2114473022       -2.1234410977  MEMB      124             0.0000000000
     16495       130  POPC      H16R          -17.8299385363       29.1079034174       -2.1953334378  MEMB      124             0.0000000000
     16496       130  POPC      H16S          -19.0145047911       30.4576008740       -2.3468442319  MEMB      124             0.0000000000
     16497       130  POPC      C217          -17.6005857833       30.6661624522       -0.7000383526  MEMB      124             0.0000000000
     16498       130  POPC      H17R          -17.8219882881       31.7536466463       -0.6152459805  MEMB      124             0.0000000000
     16499       130  POPC      H17S          -16.5025503614       30.5307689812       -0.5584093201  MEMB      124             0.0000000000
     16500       130  POPC      C218          -18.3253695325       29.9159270369        0.4183023132  MEMB      124             0.0000000000
     16501       130  POPC      H18R          -17.8760595858       30.1539607452        1.4064259287  MEMB      124             0.0000000000
     16502       130  POPC      H18S          -18.2486818953       28.8207281944        0.2488072157  MEMB      124             0.0000000000
     16503       130  POPC      H18T          -19.3989870342       30.1947816984        0.4554923498  MEMB      124             0.0000000000
     16504       130  POPC      C33           -19.7734037601       27.7063060507      -10.4276189168  MEMB      124             0.0000000000
     16505       130  POPC      H3X           -20.4561934210       26.9250468834      -10.8297441662  MEMB      124             0.0000000000
     16506       130  POPC      H3Y           -20.3149617041       28.6779907082      -10.4437855693  MEMB      124             0.0000000000
     16507       130  POPC      C34           -19.3895309942       27.4033127607       -8.9743565324  MEMB      124             0.0000000000
     16508       130  POPC      H4X           -18.7463606017       28.2283736666       -8.5931022064  MEMB      124             0.0000000000
     16509       130  POPC      H4Y           -18.7760647804       26.4728270402       -8.9665944944  MEMB      124             0.0000000000
     16510       130  POPC      C35           -20.5741742093       27.2210482636       -8.0207687067  MEMB      124             0.0000000000
     16511       130  POPC      H5X           -21.2011738998       26.3752971141       -8.3811616171  MEMB      124             0.0000000000
     16512       130  POPC      H5Y           -21.2198795976       28.1274543732       -8.0141082553  MEMB      124             0.0000000000
     16513       130  POPC      C36           -20.0877960159       26.9245307693       -6.5952817899  MEMB      124             0.0000000000
     16514       130  POPC      H6X           -19.8421426893       27.8841701892       -6.0914649669  MEMB      124             0.0000000000
     16515       130  POPC      H6Y           -19.1488587805       26.3243677393       -6.6444262937  MEMB      124             0.0000000000
     16516       130  POPC      C37           -21.1026035300       26.1203490373       -5.7770585934  MEMB      124             0.0000000000
     16517       130  POPC      H7X           -21.1934637775       25.1199167724       -6.2398303043  MEMB      124             0.0000000000
     16518       130  POPC      H7Y           -22.1073496799       26.5885539080       -5.8353095588  MEMB      124             0.0000000000
     16519       130  POPC      C38           -20.6823502044       25.9028140332       -4.3182278629  MEMB      124             0.0000000000
     16520       130  POPC      H8X           -19.6904087271       25.4014724680       -4.2989883381  MEMB      124             0.0000000000
     16521       130  POPC      H8Y           -21.4131728143       25.2159809899       -3.8335522677  MEMB      124             0.0000000000
     16522       130  POPC      C39           -20.5926275138       27.1865326048       -3.4915146420  MEMB      124             0.0000000000
     16523       130  POPC      H9X           -19.7637432680       27.8235140623       -3.8719760191  MEMB      124             0.0000000000
     16524       130  POPC      H9Y           -20.3417030898       26.9017289351       -2.4458981849  MEMB      124             0.0000000000
     16525       130  POPC      C310          -21.8979107100       27.9879359836       -3.4988483307  MEMB      124             0.0000000000
     16526       130  POPC      H10X          -22.7086083829       27.3759230413       -3.0456655142  MEMB      124             0.0000000000
     16527       130  POPC      H10Y          -22.1839998341       28.2132611434       -4.5475075278  MEMB      124             0.0000000000
     16528       130  POPC      C311          -21.7882455119       29.3315695215       -2.7763765265  MEMB      124             0.0000000000
     16529       130  POPC      H11X          -22.7875790090       29.8136044414       -2.7461711725  MEMB      124             0.0000000000
     16530       130  POPC      H11Y          -21.1230178133       29.9963080637       -3.3753143329  MEMB      124             0.0000000000
     16531       130  POPC      C312          -21.2121726681       29.2306192726       -1.3621243051  MEMB      124             0.0000000000
     16532       130  POPC      H12X          -21.1021575557       30.2622625212       -0.9717241717  MEMB      124             0.0000000000
     16533       130  POPC      H12Y          -20.1847638275       28.8085665567       -1.4185310816  MEMB      124             0.0000000000
     16534       130  POPC      C313          -22.0001877094       28.3692976774       -0.3633324392  MEMB      124             0.0000000000
     16535       130  POPC      H13X          -21.4953602268       28.4732678462        0.6216442297  MEMB      124             0.0000000000
     16536       130  POPC      H13Y          -21.9130602280       27.2981039781       -0.6554680737  MEMB      124             0.0000000000
     16537       130  POPC      C314          -23.4923430001       28.7021811270       -0.1887626431  MEMB      124             0.0000000000
     16538       130  POPC      H14X          -23.8562566663       28.1473999438        0.7057956680  MEMB      124             0.0000000000
     16539       130  POPC      H14Y          -24.0536228840       28.3160775777       -1.0711237906  MEMB      124             0.0000000000
     16540       130  POPC      C315          -23.8465066063       30.1886992131       -0.0132220560  MEMB      124             0.0000000000
     16541       130  POPC      H15X          -24.8797010680       30.2430611353        0.4028121480  MEMB      124             0.0000000000
     16542       130  POPC      H15Y          -23.8828432321       30.6558817484       -1.0205843111  MEMB      124             0.0000000000
     16543       130  POPC      C316          -22.9040535657       31.0204643865        0.8633847446  MEMB      124             0.0000000000
     16544       130  POPC      H16X          -23.4683862300       31.8098122035        1.4023952852  MEMB      124             0.0000000000
     16545       130  POPC      H16Y          -22.1410969618       31.5378614437        0.2464651343  MEMB      124             0.0000000000
     16546       130  POPC      H16Z          -22.3777702095       30.3822414196        1.6018490124  MEMB      124             0.0000000000
     16547       131  POPC      N              23.9705739542      -29.3484356220      -18.0266316217  MEMB      125             0.0000000000
     16548       131  POPC      C12            23.0518633221      -28.3017511160      -18.6625396500  MEMB      125             0.0000000000
     16549       131  POPC      H12A           23.0997640195      -27.3988561464      -18.0449980160  MEMB      125             0.0000000000
     16550       131  POPC      H12B           22.0171602148      -28.6019883817      -18.6323745197  MEMB      125             0.0000000000
     16551       131  POPC      C13            25.1484914419      -28.5921053953      -17.4714358736  MEMB      125             0.0000000000
     16552       131  POPC      H13A           25.8210178620      -29.1965261273      -16.8881493168  MEMB      125             0.0000000000
     16553       131  POPC      H13B           25.7508610983      -28.1781337388      -18.2973487368  MEMB      125             0.0000000000
     16554       131  POPC      H13C           24.8390015868      -27.7075364882      -16.9127166782  MEMB      125             0.0000000000
     16555       131  POPC      C14            23.2580096095      -30.0398224921      -16.9207633156  MEMB      125             0.0000000000
     16556       131  POPC      H14A           22.3475291279      -30.5190387087      -17.2510664762  MEMB      125             0.0000000000
     16557       131  POPC      H14B           23.8916728406      -30.7980609498      -16.4728056341  MEMB      125             0.0000000000
     16558       131  POPC      H14C           23.0060339086      -29.3198187689      -16.1472597344  MEMB      125             0.0000000000
     16559       131  POPC      C15            24.5028478707      -30.2824984349      -19.0691932464  MEMB      125             0.0000000000
     16560       131  POPC      H15A           25.0866048135      -29.6577609337      -19.7598373588  MEMB      125             0.0000000000
     16561       131  POPC      H15B           23.7119647489      -30.7308190260      -19.6499681776  MEMB      125             0.0000000000
     16562       131  POPC      H15C           25.1536775011      -31.0358024351      -18.6544970927  MEMB      125             0.0000000000
     16563       131  POPC      C11            23.3586192428      -27.8280879099      -20.1099843650  MEMB      125             0.0000000000
     16564       131  POPC      H11A           22.7020145715      -26.9447505323      -20.3334901167  MEMB      125             0.0000000000
     16565       131  POPC      H11B           23.0291307466      -28.6000155809      -20.8224531820  MEMB      125             0.0000000000
     16566       131  POPC      P              25.2104458811      -26.0894943209      -19.8520761803  MEMB      125             0.0000000000
     16567       131  POPC      O13            24.9193627187      -25.0932407912      -20.9185807889  MEMB      125             0.0000000000
     16568       131  POPC      O14            26.6076637771      -26.1945506531      -19.3876195309  MEMB      125             0.0000000000
     16569       131  POPC      O12            24.7558981217      -27.5542384842      -20.3201808063  MEMB      125             0.0000000000
     16570       131  POPC      O11            24.2857067307      -25.8525328113      -18.5794982112  MEMB      125             0.0000000000
     16571       131  POPC      C1             23.9662178139      -24.5491817910      -18.0864154694  MEMB      125             0.0000000000
     16572       131  POPC      HA             22.8960404819      -24.5340197398      -17.7816104179  MEMB      125             0.0000000000
     16573       131  POPC      HB             24.0855456204      -23.7781846106      -18.8839339482  MEMB      125             0.0000000000
     16574       131  POPC      C2             24.8418932864      -24.0902826686      -16.8750236615  MEMB      125             0.0000000000
     16575       131  POPC      HS             24.9117033260      -22.9784102504      -16.9184714798  MEMB      125             0.0000000000
     16576       131  POPC      O21            26.1453269052      -24.6829801470      -17.0237674367  MEMB      125             0.0000000000
     16577       131  POPC      C21            27.0145947234      -24.5037444523      -16.0692036750  MEMB      125             0.0000000000
     16578       131  POPC      O22            26.9051650228      -23.7180040294      -15.1412083397  MEMB      125             0.0000000000
     16579       131  POPC      C22            28.1828664292      -25.4637518253      -16.2151957538  MEMB      125             0.0000000000
     16580       131  POPC      H2R            28.8674683513      -25.2506382562      -15.3698639952  MEMB      125             0.0000000000
     16581       131  POPC      H2S            28.7128644064      -25.2461604337      -17.1645870872  MEMB      125             0.0000000000
     16582       131  POPC      C3             24.1894093116      -24.4604239164      -15.4911013273  MEMB      125             0.0000000000
     16583       131  POPC      HX             23.0970809528      -24.2794529253      -15.5890877613  MEMB      125             0.0000000000
     16584       131  POPC      HY             24.5667354842      -23.7325464233      -14.7343196010  MEMB      125             0.0000000000
     16585       131  POPC      O31            24.4464831928      -25.8258883471      -15.0752999427  MEMB      125             0.0000000000
     16586       131  POPC      C31            23.9407459259      -26.1213825630      -13.8919332965  MEMB      125             0.0000000000
     16587       131  POPC      O32            23.4345264912      -25.3443435658      -13.1035230148  MEMB      125             0.0000000000
     16588       131  POPC      C32            24.1089724457      -27.6231901566      -13.6725223504  MEMB      125             0.0000000000
     16589       131  POPC      H2X            25.1443595704      -27.8908123123      -13.9705987120  MEMB      125             0.0000000000
     16590       131  POPC      H2Y            23.4059057142      -28.1359469762      -14.3579740992  MEMB      125             0.0000000000
     16591       131  POPC      C23            27.7323994388      -26.9412769764      -16.1982003580  MEMB      125             0.0000000000
     16592       131  POPC      H3R            27.6964425899      -27.2667038389      -17.2674627659  MEMB      125             0.0000000000
     16593       131  POPC      H3S            26.7161741501      -27.0499408154      -15.7565252131  MEMB      125             0.0000000000
     16594       131  POPC      C24            28.6919409126      -27.8713124018      -15.4520226044  MEMB      125             0.0000000000
     16595       131  POPC      H4R            29.7350524414      -27.6580115453      -15.7822258324  MEMB      125             0.0000000000
     16596       131  POPC      H4S            28.4878476473      -28.9255296240      -15.7441348933  MEMB      125             0.0000000000
     16597       131  POPC      C25            28.6050723135      -27.7368889429      -13.9316907472  MEMB      125             0.0000000000
     16598       131  POPC      H5R            27.5432730497      -27.8191255754      -13.6118475938  MEMB      125             0.0000000000
     16599       131  POPC      H5S            28.9803889606      -26.7341044462      -13.6297754308  MEMB      125             0.0000000000
     16600       131  POPC      C26            29.4406670123      -28.8076702106      -13.2268470835  MEMB      125             0.0000000000
     16601       131  POPC      H6R            30.4096954436      -28.9317029175      -13.7616297905  MEMB      125             0.0000000000
     16602       131  POPC      H6S            28.9158048250      -29.7847637982      -13.3063265582  MEMB      125             0.0000000000
     16603       131  POPC      C27            29.7341611925      -28.4824173137      -11.7544499822  MEMB      125             0.0000000000
     16604       131  POPC      H7R            30.5027908490      -27.6827595022      -11.7012253872  MEMB      125             0.0000000000
     16605       131  POPC      H7S            30.1961201707      -29.3950511631      -11.3225615679  MEMB      125             0.0000000000
     16606       131  POPC      C28            28.4855792116      -28.0441992552      -10.9614324941  MEMB      125             0.0000000000
     16607       131  POPC      H8R            27.6176943915      -28.5466523284      -11.4385559779  MEMB      125             0.0000000000
     16608       131  POPC      H8S            28.3354706913      -26.9488592296      -11.0874799395  MEMB      125             0.0000000000
     16609       131  POPC      C29            28.5592899081      -28.4609698056       -9.5147700432  MEMB      125             0.0000000000
     16610       131  POPC      H91            28.7543356992      -29.5353305602       -9.3779164951  MEMB      125             0.0000000000
     16611       131  POPC      C210           28.4154192746      -27.7016361620       -8.4143709470  MEMB      125             0.0000000000
     16612       131  POPC      H101           28.4914206603      -28.1914316377       -7.4317399746  MEMB      125             0.0000000000
     16613       131  POPC      C211           28.1377680817      -26.2228866029       -8.3514223275  MEMB      125             0.0000000000
     16614       131  POPC      H11R           27.4303349712      -25.9119178086       -9.1514548556  MEMB      125             0.0000000000
     16615       131  POPC      H11S           29.0882674475      -25.6711408776       -8.5135230061  MEMB      125             0.0000000000
     16616       131  POPC      C212           27.5779000534      -25.7737042092       -6.9828754004  MEMB      125             0.0000000000
     16617       131  POPC      H12R           27.4883422366      -24.6638614054       -6.9804433288  MEMB      125             0.0000000000
     16618       131  POPC      H12S           28.3021368582      -26.0302513385       -6.1805613140  MEMB      125             0.0000000000
     16619       131  POPC      C213           26.2083213548      -26.3792924925       -6.6444904310  MEMB      125             0.0000000000
     16620       131  POPC      H13R           26.2428177799      -27.4833415372       -6.7625781622  MEMB      125             0.0000000000
     16621       131  POPC      H13S           25.4660890185      -26.0015676964       -7.3838538466  MEMB      125             0.0000000000
     16622       131  POPC      C214           25.7143623567      -26.0434051516       -5.2258752704  MEMB      125             0.0000000000
     16623       131  POPC      H14R           24.6478339026      -26.3599327209       -5.1547963778  MEMB      125             0.0000000000
     16624       131  POPC      H14S           25.7509425469      -24.9418925036       -5.0721473696  MEMB      125             0.0000000000
     16625       131  POPC      C215           26.4761135155      -26.7423067419       -4.0825907244  MEMB      125             0.0000000000
     16626       131  POPC      H15R           25.9415013969      -26.5123378991       -3.1358985145  MEMB      125             0.0000000000
     16627       131  POPC      H15S           27.4998292080      -26.3185016824       -3.9888624866  MEMB      125             0.0000000000
     16628       131  POPC      C216           26.5850436105      -28.2682857117       -4.2524677074  MEMB      125             0.0000000000
     16629       131  POPC      H16R           27.4028137153      -28.4696389141       -4.9809498009  MEMB      125             0.0000000000
     16630       131  POPC      H16S           25.6559165562      -28.6686029797       -4.7048541168  MEMB      125             0.0000000000
     16631       131  POPC      C217           26.8884471796      -29.0366121472       -2.9532761721  MEMB      125             0.0000000000
     16632       131  POPC      H17R           27.7959079791      -28.5799523717       -2.5046129248  MEMB      125             0.0000000000
     16633       131  POPC      H17S           27.1367518985      -30.0862872009       -3.2314616453  MEMB      125             0.0000000000
     16634       131  POPC      C218           25.7870109677      -29.0863596569       -1.8857649977  MEMB      125             0.0000000000
     16635       131  POPC      H18R           24.9376991836      -29.7157513785       -2.2237599849  MEMB      125             0.0000000000
     16636       131  POPC      H18S           25.4078323492      -28.0717764503       -1.6504642373  MEMB      125             0.0000000000
     16637       131  POPC      H18T           26.1778741659      -29.5265877356       -0.9440664319  MEMB      125             0.0000000000
     16638       131  POPC      C33            23.8516416629      -28.0719944334      -12.2149481612  MEMB      125             0.0000000000
     16639       131  POPC      H3X            22.8185467931      -27.8024316097      -11.8966624206  MEMB      125             0.0000000000
     16640       131  POPC      H3Y            24.5614529299      -27.5383731476      -11.5409702242  MEMB      125             0.0000000000
     16641       131  POPC      C34            24.0528056597      -29.5896442258      -12.0745733701  MEMB      125             0.0000000000
     16642       131  POPC      H4X            25.0381969116      -29.8484701375      -12.5263086763  MEMB      125             0.0000000000
     16643       131  POPC      H4Y            23.2682107961      -30.1144848690      -12.6634070515  MEMB      125             0.0000000000
     16644       131  POPC      C35            24.0419325652      -30.1113970712      -10.6279330769  MEMB      125             0.0000000000
     16645       131  POPC      H5X            24.2433969563      -31.2064194127      -10.6539839113  MEMB      125             0.0000000000
     16646       131  POPC      H5Y            23.0373396718      -29.9723165727      -10.1751426297  MEMB      125             0.0000000000
     16647       131  POPC      C36            25.1051100367      -29.4462557322       -9.7421742938  MEMB      125             0.0000000000
     16648       131  POPC      H6X            24.6987850905      -28.5201814002       -9.2791456935  MEMB      125             0.0000000000
     16649       131  POPC      H6Y            25.9375340528      -29.1327358743      -10.4061582462  MEMB      125             0.0000000000
     16650       131  POPC      C37            25.7036101699      -30.3680710802       -8.6665245562  MEMB      125             0.0000000000
     16651       131  POPC      H7X            26.4740168458      -29.7929279799       -8.1052016273  MEMB      125             0.0000000000
     16652       131  POPC      H7Y            26.2177366827      -31.2233230025       -9.1596765063  MEMB      125             0.0000000000
     16653       131  POPC      C38            24.6949863317      -30.9036421848       -7.6441268305  MEMB      125             0.0000000000
     16654       131  POPC      H8X            25.2644093761      -31.4254364886       -6.8420527069  MEMB      125             0.0000000000
     16655       131  POPC      H8Y            24.0214598098      -31.6463176162       -8.1246606419  MEMB      125             0.0000000000
     16656       131  POPC      C39            23.8560181574      -29.7944158285       -7.0070434269  MEMB      125             0.0000000000
     16657       131  POPC      H9X            23.0704136763      -29.4751098688       -7.7246217308  MEMB      125             0.0000000000
     16658       131  POPC      H9Y            24.5138591272      -28.9178627230       -6.8108946369  MEMB      125             0.0000000000
     16659       131  POPC      C310           23.2019770329      -30.1949478887       -5.6797798547  MEMB      125             0.0000000000
     16660       131  POPC      H10X           24.0080259092      -30.4670551923       -4.9622850342  MEMB      125             0.0000000000
     16661       131  POPC      H10Y           22.5554931209      -31.0876443904       -5.8233968249  MEMB      125             0.0000000000
     16662       131  POPC      C311           22.3843665623      -29.0346197894       -5.1008769428  MEMB      125             0.0000000000
     16663       131  POPC      H11X           21.2970269601      -29.2568892917       -5.1332758858  MEMB      125             0.0000000000
     16664       131  POPC      H11Y           22.5700620224      -28.1498707535       -5.7464386579  MEMB      125             0.0000000000
     16665       131  POPC      C312           22.8118713880      -28.6186232089       -3.6950343579  MEMB      125             0.0000000000
     16666       131  POPC      H12X           23.9133436541      -28.5239711600       -3.6854362756  MEMB      125             0.0000000000
     16667       131  POPC      H12Y           22.5258616960      -29.3977888681       -2.9552354282  MEMB      125             0.0000000000
     16668       131  POPC      C313           22.2545568830      -27.2527568066       -3.2858967140  MEMB      125             0.0000000000
     16669       131  POPC      H13X           21.1480979539      -27.3357374823       -3.2480943828  MEMB      125             0.0000000000
     16670       131  POPC      H13Y           22.5019736328      -26.4913370301       -4.0603767273  MEMB      125             0.0000000000
     16671       131  POPC      C314           22.8332350877      -26.7944753373       -1.9398634912  MEMB      125             0.0000000000
     16672       131  POPC      H14X           23.8839770268      -26.4599025156       -2.0850481335  MEMB      125             0.0000000000
     16673       131  POPC      H14Y           22.8484176923      -27.6667823219       -1.2448302128  MEMB      125             0.0000000000
     16674       131  POPC      C315           22.0217462971      -25.6835459251       -1.2754849892  MEMB      125             0.0000000000
     16675       131  POPC      H15X           22.0339569445      -24.7724432571       -1.9164755606  MEMB      125             0.0000000000
     16676       131  POPC      H15Y           22.5097453850      -25.4125200930       -0.3106797039  MEMB      125             0.0000000000
     16677       131  POPC      C316           20.5772642118      -26.1084471857       -1.0115202966  MEMB      125             0.0000000000
     16678       131  POPC      H16X           20.4720089511      -27.2143166327       -1.0427474738  MEMB      125             0.0000000000
     16679       131  POPC      H16Y           19.9030470157      -25.6785600294       -1.7859326857  MEMB      125             0.0000000000
     16680       131  POPC      H16Z           20.2487400787      -25.7650242362       -0.0095265367  MEMB      125             0.0000000000
     16681       132  POPC      N              31.1871441168       21.9507587768      -18.4411200092  MEMB      126             0.0000000000
     16682       132  POPC      C12            31.0845190450       21.6165155971      -19.9260630760  MEMB      126             0.0000000000
     16683       132  POPC      H12A           30.4441716295       20.7446031326      -20.0455398227  MEMB      126             0.0000000000
     16684       132  POPC      H12B           32.0661973265       21.3420608094      -20.2870109223  MEMB      126             0.0000000000
     16685       132  POPC      C13            29.8586958957       22.4377827769      -17.9490610146  MEMB      126             0.0000000000
     16686       132  POPC      H13A           29.1177398853       21.6503100102      -17.9683925140  MEMB      126             0.0000000000
     16687       132  POPC      H13B           29.9414195363       22.7860209427      -16.9268672411  MEMB      126             0.0000000000
     16688       132  POPC      H13C           29.5301635875       23.2715831793      -18.5708970376  MEMB      126             0.0000000000
     16689       132  POPC      C14            31.5264818909       20.7200940783      -17.6832358697  MEMB      126             0.0000000000
     16690       132  POPC      H14A           30.7471005615       19.9673504178      -17.8235695994  MEMB      126             0.0000000000
     16691       132  POPC      H14B           32.4268269925       20.2181505005      -18.0113032334  MEMB      126             0.0000000000
     16692       132  POPC      H14C           31.5884227705       20.8942028016      -16.6083623042  MEMB      126             0.0000000000
     16693       132  POPC      C15            32.1877575095       23.0202768008      -18.1599242268  MEMB      126             0.0000000000
     16694       132  POPC      H15A           33.1800452639       22.7142072541      -18.4364369585  MEMB      126             0.0000000000
     16695       132  POPC      H15B           32.1481444320       23.3205590355      -17.1219340715  MEMB      126             0.0000000000
     16696       132  POPC      H15C           31.9308644791       23.9087784234      -18.7401342969  MEMB      126             0.0000000000
     16697       132  POPC      C11            30.5512141843       22.7045172063      -20.8860998972  MEMB      126             0.0000000000
     16698       132  POPC      H11A           29.4807465376       22.9115111892      -20.6535310142  MEMB      126             0.0000000000
     16699       132  POPC      H11B           30.5816777215       22.2855417576      -21.9187771378  MEMB      126             0.0000000000
     16700       132  POPC      P              30.8890595343       25.3139608581      -20.5429879637  MEMB      126             0.0000000000
     16701       132  POPC      O13            30.3931431754       25.9368519560      -21.7936503783  MEMB      126             0.0000000000
     16702       132  POPC      O14            31.9637142624       26.0068022206      -19.7818775307  MEMB      126             0.0000000000
     16703       132  POPC      O12            31.3847929744       23.8498531432      -20.8349788806  MEMB      126             0.0000000000
     16704       132  POPC      O11            29.6400282275       25.1260407570      -19.5743426419  MEMB      126             0.0000000000
     16705       132  POPC      C1             28.9360657179       26.3281248816      -19.1866606425  MEMB      126             0.0000000000
     16706       132  POPC      HA             27.8762479921       26.2344629876      -19.5123473418  MEMB      126             0.0000000000
     16707       132  POPC      HB             29.3196799808       27.2691593135      -19.6594223434  MEMB      126             0.0000000000
     16708       132  POPC      C2             28.9322571641       26.5324000999      -17.6455240113  MEMB      126             0.0000000000
     16709       132  POPC      HS             28.3486888423       27.4567347919      -17.4114718895  MEMB      126             0.0000000000
     16710       132  POPC      O21            30.2594726300       26.6131418415      -17.1105008623  MEMB      126             0.0000000000
     16711       132  POPC      C21            30.8997536740       27.7447130519      -17.2647894800  MEMB      126             0.0000000000
     16712       132  POPC      O22            30.4985607482       28.7492202917      -17.8191811609  MEMB      126             0.0000000000
     16713       132  POPC      C22            32.1468953236       27.6835355087      -16.4195746739  MEMB      126             0.0000000000
     16714       132  POPC      H2R            32.8338660850       28.4944179727      -16.7229436503  MEMB      126             0.0000000000
     16715       132  POPC      H2S            32.6302815140       26.6964605016      -16.5722447277  MEMB      126             0.0000000000
     16716       132  POPC      C3             28.2147426023       25.3436594186      -16.9567192829  MEMB      126             0.0000000000
     16717       132  POPC      HX             28.9758037061       24.5937448635      -16.6439869917  MEMB      126             0.0000000000
     16718       132  POPC      HY             27.5816321998       24.8346865547      -17.7129032277  MEMB      126             0.0000000000
     16719       132  POPC      O31            27.3640632932       25.7844092420      -15.8805264591  MEMB      126             0.0000000000
     16720       132  POPC      C31            27.8728284718       25.6322224544      -14.6526928075  MEMB      126             0.0000000000
     16721       132  POPC      O32            28.9782407064       25.1952197588      -14.4021362198  MEMB      126             0.0000000000
     16722       132  POPC      C32            26.8551283811       26.0469586115      -13.5782322601  MEMB      126             0.0000000000
     16723       132  POPC      H2X            25.8810377543       25.5688692321      -13.7992090046  MEMB      126             0.0000000000
     16724       132  POPC      H2Y            26.7326899212       27.1460741419      -13.6413934245  MEMB      126             0.0000000000
     16725       132  POPC      C23            31.6694582512       27.8680341345      -14.9713003708  MEMB      126             0.0000000000
     16726       132  POPC      H3R            30.8461531098       27.1499597620      -14.7496052725  MEMB      126             0.0000000000
     16727       132  POPC      H3S            31.2463229669       28.8917228488      -14.8580812543  MEMB      126             0.0000000000
     16728       132  POPC      C24            32.7790374457       27.6575670341      -13.9546268571  MEMB      126             0.0000000000
     16729       132  POPC      H4R            32.4987885583       28.1463089075      -12.9936075028  MEMB      126             0.0000000000
     16730       132  POPC      H4S            33.6816878956       28.1595404717      -14.3346796353  MEMB      126             0.0000000000
     16731       132  POPC      C25            33.0649710645       26.1875667141      -13.6446690826  MEMB      126             0.0000000000
     16732       132  POPC      H5R            34.0478104929       26.1092356317      -13.1251401087  MEMB      126             0.0000000000
     16733       132  POPC      H5S            33.1162307830       25.5896119578      -14.5807519279  MEMB      126             0.0000000000
     16734       132  POPC      C26            31.9887786883       25.6302060218      -12.7138146875  MEMB      126             0.0000000000
     16735       132  POPC      H6R            31.0025621199       25.7067879586      -13.2195796507  MEMB      126             0.0000000000
     16736       132  POPC      H6S            31.9380360566       26.2509213534      -11.7909268489  MEMB      126             0.0000000000
     16737       132  POPC      C27            32.1947267378       24.1694619242      -12.3153695275  MEMB      126             0.0000000000
     16738       132  POPC      H7R            33.0453586384       24.0947906843      -11.6033329263  MEMB      126             0.0000000000
     16739       132  POPC      H7S            32.4459130018       23.5777215776      -13.2239603267  MEMB      126             0.0000000000
     16740       132  POPC      C28            30.9013951861       23.6301528937      -11.6908528505  MEMB      126             0.0000000000
     16741       132  POPC      H8R            30.1087585233       23.6482149170      -12.4743418680  MEMB      126             0.0000000000
     16742       132  POPC      H8S            30.5725977048       24.3552773147      -10.9120586119  MEMB      126             0.0000000000
     16743       132  POPC      C29            31.0479765731       22.2372883678      -11.1424284773  MEMB      126             0.0000000000
     16744       132  POPC      H91            31.1755847225       21.4473094230      -11.8999282247  MEMB      126             0.0000000000
     16745       132  POPC      C210           31.0581070861       21.9171821819       -9.8362284454  MEMB      126             0.0000000000
     16746       132  POPC      H101           31.1179547321       20.8574555107       -9.5507054702  MEMB      126             0.0000000000
     16747       132  POPC      C211           30.9256730385       22.9027812028       -8.7014637826  MEMB      126             0.0000000000
     16748       132  POPC      H11R           31.4267713885       23.8641847222       -8.9593378517  MEMB      126             0.0000000000
     16749       132  POPC      H11S           31.4243891158       22.5292837623       -7.7799498543  MEMB      126             0.0000000000
     16750       132  POPC      C212           29.4482270303       23.2034859902       -8.4027882819  MEMB      126             0.0000000000
     16751       132  POPC      H12R           28.8923927649       23.3337190419       -9.3600586971  MEMB      126             0.0000000000
     16752       132  POPC      H12S           29.3689728785       24.1712350788       -7.8620764580  MEMB      126             0.0000000000
     16753       132  POPC      C213           28.7579070000       22.1207142002       -7.5615050957  MEMB      126             0.0000000000
     16754       132  POPC      H13R           29.0801303259       21.1073753907       -7.8801105649  MEMB      126             0.0000000000
     16755       132  POPC      H13S           27.6654456054       22.2031220085       -7.7571262165  MEMB      126             0.0000000000
     16756       132  POPC      C214           28.9780204985       22.3081954014       -6.0518921740  MEMB      126             0.0000000000
     16757       132  POPC      H14R           28.7615905063       23.3730536301       -5.8174237738  MEMB      126             0.0000000000
     16758       132  POPC      H14S           30.0393188374       22.1121491921       -5.7856860431  MEMB      126             0.0000000000
     16759       132  POPC      C215           28.0429031209       21.4178438996       -5.2207255879  MEMB      126             0.0000000000
     16760       132  POPC      H15R           28.3199410212       20.3519931205       -5.3822679312  MEMB      126             0.0000000000
     16761       132  POPC      H15S           27.0136031138       21.5496456910       -5.6131504526  MEMB      126             0.0000000000
     16762       132  POPC      C216           28.0272963038       21.7236265848       -3.7118226851  MEMB      126             0.0000000000
     16763       132  POPC      H16R           29.0420468102       21.5547615270       -3.2942391038  MEMB      126             0.0000000000
     16764       132  POPC      H16S           27.3360731941       21.0047285768       -3.2146032973  MEMB      126             0.0000000000
     16765       132  POPC      C217           27.5896716245       23.1513072676       -3.3474983138  MEMB      126             0.0000000000
     16766       132  POPC      H17R           26.6056222316       23.3637553371       -3.8164712811  MEMB      126             0.0000000000
     16767       132  POPC      H17S           28.3221119378       23.8754272733       -3.7686977103  MEMB      126             0.0000000000
     16768       132  POPC      C218           27.4821423260       23.3833482056       -1.8380945780  MEMB      126             0.0000000000
     16769       132  POPC      H18R           28.4598039444       23.1810409222       -1.3504464960  MEMB      126             0.0000000000
     16770       132  POPC      H18S           26.7212876191       22.7067448548       -1.3922418443  MEMB      126             0.0000000000
     16771       132  POPC      H18T           27.1946501330       24.4345649684       -1.6224675392  MEMB      126             0.0000000000
     16772       132  POPC      C33            27.3498768813       25.6397623183      -12.1612189140  MEMB      126             0.0000000000
     16773       132  POPC      H3X            28.4026989201       25.9834009623      -12.0430495320  MEMB      126             0.0000000000
     16774       132  POPC      H3Y            27.3807146882       24.5302915180      -12.0798024959  MEMB      126             0.0000000000
     16775       132  POPC      C34            26.5352717537       26.2095540074      -10.9823704894  MEMB      126             0.0000000000
     16776       132  POPC      H4X            25.5113855889       25.7851250250      -11.0060669756  MEMB      126             0.0000000000
     16777       132  POPC      H4Y            26.4385857939       27.3098805455      -11.1031714617  MEMB      126             0.0000000000
     16778       132  POPC      C35            27.1862968895       25.8847454988       -9.6188981909  MEMB      126             0.0000000000
     16779       132  POPC      H5X            28.2748373479       26.0909342157       -9.6831686653  MEMB      126             0.0000000000
     16780       132  POPC      H5Y            27.0934169322       24.7962266297       -9.4176133210  MEMB      126             0.0000000000
     16781       132  POPC      C36            26.6098057882       26.6663242077       -8.4228413805  MEMB      126             0.0000000000
     16782       132  POPC      H6X            25.5245273120       26.4305560550       -8.3426406854  MEMB      126             0.0000000000
     16783       132  POPC      H6Y            26.7074479590       27.7586911843       -8.6125961542  MEMB      126             0.0000000000
     16784       132  POPC      C37            27.2881814599       26.3268450155       -7.0769743634  MEMB      126             0.0000000000
     16785       132  POPC      H7X            27.2607272916       25.2230259113       -6.9312558404  MEMB      126             0.0000000000
     16786       132  POPC      H7Y            26.7030351259       26.7879226755       -6.2491402429  MEMB      126             0.0000000000
     16787       132  POPC      C38            28.7455790471       26.8128330058       -6.9727789505  MEMB      126             0.0000000000
     16788       132  POPC      H8X            28.7812904012       27.9214374040       -7.0522266423  MEMB      126             0.0000000000
     16789       132  POPC      H8Y            29.3170363870       26.4065572466       -7.8368886015  MEMB      126             0.0000000000
     16790       132  POPC      C39            29.4706912011       26.3789267431       -5.6845191735  MEMB      126             0.0000000000
     16791       132  POPC      H9X            28.9598948418       25.4951458206       -5.2481953966  MEMB      126             0.0000000000
     16792       132  POPC      H9Y            29.4101917402       27.1950843808       -4.9310852663  MEMB      126             0.0000000000
     16793       132  POPC      C310           30.9437530609       26.0130930386       -5.9453566167  MEMB      126             0.0000000000
     16794       132  POPC      H10X           31.3921816022       26.7893088096       -6.5993394994  MEMB      126             0.0000000000
     16795       132  POPC      H10Y           30.9881898359       25.0548419364       -6.5075030292  MEMB      126             0.0000000000
     16796       132  POPC      C311           31.8148862381       25.9048233149       -4.6836428803  MEMB      126             0.0000000000
     16797       132  POPC      H11X           31.7602040178       26.8607317518       -4.1166682442  MEMB      126             0.0000000000
     16798       132  POPC      H11Y           32.8737135266       25.7655855591       -5.0022884411  MEMB      126             0.0000000000
     16799       132  POPC      C312           31.4285087119       24.7345106867       -3.7693399495  MEMB      126             0.0000000000
     16800       132  POPC      H12X           31.3533338109       23.8064563811       -4.3803226549  MEMB      126             0.0000000000
     16801       132  POPC      H12Y           30.4206116003       24.9226148152       -3.3396578082  MEMB      126             0.0000000000
     16802       132  POPC      C313           32.4390814757       24.4863045582       -2.6345740607  MEMB      126             0.0000000000
     16803       132  POPC      H13X           33.4135786407       24.1850767204       -3.0804882881  MEMB      126             0.0000000000
     16804       132  POPC      H13Y           32.0785748352       23.6323435855       -2.0201089077  MEMB      126             0.0000000000
     16805       132  POPC      C314           32.6820397354       25.6849601556       -1.7011767117  MEMB      126             0.0000000000
     16806       132  POPC      H14X           33.2334237861       26.4741922536       -2.2605624550  MEMB      126             0.0000000000
     16807       132  POPC      H14Y           33.3415304738       25.3524518090       -0.8667156363  MEMB      126             0.0000000000
     16808       132  POPC      C315           31.4047900532       26.3016550649       -1.1059608451  MEMB      126             0.0000000000
     16809       132  POPC      H15X           30.8132718251       26.7701295365       -1.9254079147  MEMB      126             0.0000000000
     16810       132  POPC      H15Y           31.7143944777       27.1170645130       -0.4173759903  MEMB      126             0.0000000000
     16811       132  POPC      C316           30.5123248682       25.3283076802       -0.3302364315  MEMB      126             0.0000000000
     16812       132  POPC      H16X           29.5647610720       25.8248665108       -0.0346549785  MEMB      126             0.0000000000
     16813       132  POPC      H16Y           31.0302441205       24.9796398368        0.5875018935  MEMB      126             0.0000000000
     16814       132  POPC      H16Z           30.2552833170       24.4457181838       -0.9509837813  MEMB      126             0.0000000000
     16815       133  POPC      N             -30.2963851401       26.4602448925      -19.7518488886  MEMB      127             0.0000000000
     16816       133  POPC      C12           -29.1713650891       25.8891061139      -20.6124234089  MEMB      127             0.0000000000
     16817       133  POPC      H12A          -29.3134994018       26.2333980856      -21.6325145559  MEMB      127             0.0000000000
     16818       133  POPC      H12B          -29.2667394101       24.8167040401      -20.6345985630  MEMB      127             0.0000000000
     16819       133  POPC      C13           -29.9609334569       27.9130750604      -19.5334434166  MEMB      127             0.0000000000
     16820       133  POPC      H13A          -29.9213238028       28.4653824427      -20.4695416191  MEMB      127             0.0000000000
     16821       133  POPC      H13B          -30.6051989282       28.3918961232      -18.8248632096  MEMB      127             0.0000000000
     16822       133  POPC      H13C          -28.9403887194       27.9883663618      -19.1381009235  MEMB      127             0.0000000000
     16823       133  POPC      C14           -31.5868165652       26.3129109200      -20.4710010602  MEMB      127             0.0000000000
     16824       133  POPC      H14A          -31.7983540298       25.2739599586      -20.7125592475  MEMB      127             0.0000000000
     16825       133  POPC      H14B          -32.4413317359       26.6202924197      -19.8580259210  MEMB      127             0.0000000000
     16826       133  POPC      H14C          -31.6386060192       26.9042508354      -21.3776611395  MEMB      127             0.0000000000
     16827       133  POPC      C15           -30.3420394205       25.7658673926      -18.4201775112  MEMB      127             0.0000000000
     16828       133  POPC      H15A          -29.3997574145       25.9781704480      -17.8995811494  MEMB      127             0.0000000000
     16829       133  POPC      H15B          -30.3939773271       24.6936869595      -18.5142791388  MEMB      127             0.0000000000
     16830       133  POPC      H15C          -31.1567629834       26.1244504183      -17.8067670598  MEMB      127             0.0000000000
     16831       133  POPC      C11           -27.7082944591       26.2410506315      -20.2259889941  MEMB      127             0.0000000000
     16832       133  POPC      H11A          -27.4970040323       27.2656558132      -20.6115360243  MEMB      127             0.0000000000
     16833       133  POPC      H11B          -27.0099628186       25.5420582455      -20.7432079449  MEMB      127             0.0000000000
     16834       133  POPC      P             -26.3468108902       27.0243950209      -18.1504774120  MEMB      127             0.0000000000
     16835       133  POPC      O13           -25.0488248203       26.6291915030      -18.7500839053  MEMB      127             0.0000000000
     16836       133  POPC      O14           -26.5323180482       26.8941255134      -16.6913698681  MEMB      127             0.0000000000
     16837       133  POPC      O12           -27.5015733639       26.1592123618      -18.8189349570  MEMB      127             0.0000000000
     16838       133  POPC      O11           -26.7091035545       28.5049892056      -18.6314367640  MEMB      127             0.0000000000
     16839       133  POPC      C1            -25.6570536303       29.4267105988      -18.9725034611  MEMB      127             0.0000000000
     16840       133  POPC      HA            -26.0311745889       30.1203805113      -19.7563763741  MEMB      127             0.0000000000
     16841       133  POPC      HB            -24.7648521588       28.9188821372      -19.4093549333  MEMB      127             0.0000000000
     16842       133  POPC      C2            -25.1697712284       30.2974890324      -17.7750790084  MEMB      127             0.0000000000
     16843       133  POPC      HS            -24.2346541561       30.8155335328      -18.0924082266  MEMB      127             0.0000000000
     16844       133  POPC      O21           -24.9131648142       29.4363431249      -16.6559684896  MEMB      127             0.0000000000
     16845       133  POPC      C21           -24.2596173814       29.9008619407      -15.6174194765  MEMB      127             0.0000000000
     16846       133  POPC      O22           -23.6980768297       30.9819065747      -15.5528144508  MEMB      127             0.0000000000
     16847       133  POPC      C22           -24.3532391437       28.8513884641      -14.5001390182  MEMB      127             0.0000000000
     16848       133  POPC      H2R           -23.3808639895       28.3378373281      -14.4366768642  MEMB      127             0.0000000000
     16849       133  POPC      H2S           -25.1105996228       28.0892422992      -14.7910505320  MEMB      127             0.0000000000
     16850       133  POPC      C3            -26.2409205556       31.3856131258      -17.4383170158  MEMB      127             0.0000000000
     16851       133  POPC      HX            -26.5108688091       31.8892865362      -18.3921163944  MEMB      127             0.0000000000
     16852       133  POPC      HY            -25.7827497240       32.1812690545      -16.8049510449  MEMB      127             0.0000000000
     16853       133  POPC      O31           -27.4395847322       30.7902382470      -16.8696240346  MEMB      127             0.0000000000
     16854       133  POPC      C31           -27.3148340222       30.6269421759      -15.5571843251  MEMB      127             0.0000000000
     16855       133  POPC      O32           -26.5779704880       31.2975948268      -14.8631926183  MEMB      127             0.0000000000
     16856       133  POPC      C32           -28.1711410060       29.4979313608      -14.9926230931  MEMB      127             0.0000000000
     16857       133  POPC      H2X           -28.6115304527       29.8721241905      -14.0446106952  MEMB      127             0.0000000000
     16858       133  POPC      H2Y           -27.4556481236       28.6794136277      -14.7559584434  MEMB      127             0.0000000000
     16859       133  POPC      C23           -24.7372970649       29.4410119018      -13.1259374649  MEMB      127             0.0000000000
     16860       133  POPC      H3R           -25.7695985703       29.8461677625      -13.1879782632  MEMB      127             0.0000000000
     16861       133  POPC      H3S           -24.0808298570       30.2894273735      -12.8408831189  MEMB      127             0.0000000000
     16862       133  POPC      C24           -24.7284087036       28.3838721995      -12.0157265462  MEMB      127             0.0000000000
     16863       133  POPC      H4R           -23.7683336738       28.4156209104      -11.4574021948  MEMB      127             0.0000000000
     16864       133  POPC      H4S           -24.7930684241       27.3776786523      -12.4904182480  MEMB      127             0.0000000000
     16865       133  POPC      C25           -25.9316930562       28.5273885824      -11.0764907969  MEMB      127             0.0000000000
     16866       133  POPC      H5R           -26.0045670290       27.6181120957      -10.4438954873  MEMB      127             0.0000000000
     16867       133  POPC      H5S           -26.8474028144       28.5610891627      -11.7122490129  MEMB      127             0.0000000000
     16868       133  POPC      C26           -25.9035664028       29.7740303698      -10.1808122344  MEMB      127             0.0000000000
     16869       133  POPC      H6R           -26.8994502049       29.8878512012       -9.6976070888  MEMB      127             0.0000000000
     16870       133  POPC      H6S           -25.7285328369       30.6770408673      -10.8082960738  MEMB      127             0.0000000000
     16871       133  POPC      C27           -24.8307388499       29.7209358698       -9.0823199385  MEMB      127             0.0000000000
     16872       133  POPC      H7R           -24.7340565142       30.7312214237       -8.6240699304  MEMB      127             0.0000000000
     16873       133  POPC      H7S           -23.8496899838       29.4892621757       -9.5556740296  MEMB      127             0.0000000000
     16874       133  POPC      C28           -25.1023787385       28.6835511069       -7.9719538684  MEMB      127             0.0000000000
     16875       133  POPC      H8R           -24.1276623758       28.5062443571       -7.4645739698  MEMB      127             0.0000000000
     16876       133  POPC      H8S           -25.3892907255       27.7092297730       -8.4190175452  MEMB      127             0.0000000000
     16877       133  POPC      C29           -26.1647143562       29.1525805578       -7.0064526681  MEMB      127             0.0000000000
     16878       133  POPC      H91           -27.2035866156       29.0536905181       -7.3581934814  MEMB      127             0.0000000000
     16879       133  POPC      C210          -25.9444867503       29.6330424128       -5.7707924052  MEMB      127             0.0000000000
     16880       133  POPC      H101          -26.8017562745       29.9663421870       -5.1675363430  MEMB      127             0.0000000000
     16881       133  POPC      C211          -24.5923604156       29.7861724562       -5.1262355854  MEMB      127             0.0000000000
     16882       133  POPC      H11R          -23.9226229364       28.9652843290       -5.4605827113  MEMB      127             0.0000000000
     16883       133  POPC      H11S          -24.6753753300       29.6562225015       -4.0268661297  MEMB      127             0.0000000000
     16884       133  POPC      C212          -23.8738344945       31.1107378588       -5.4592469053  MEMB      127             0.0000000000
     16885       133  POPC      H12R          -23.8668356536       31.2623385555       -6.5616481772  MEMB      127             0.0000000000
     16886       133  POPC      H12S          -22.8120857148       31.0125610584       -5.1344210064  MEMB      127             0.0000000000
     16887       133  POPC      C213          -24.4623526634       32.3539612067       -4.7767330256  MEMB      127             0.0000000000
     16888       133  POPC      H13R          -25.5358288017       32.4567099460       -5.0512296739  MEMB      127             0.0000000000
     16889       133  POPC      H13S          -23.9262974765       33.2542477632       -5.1535488247  MEMB      127             0.0000000000
     16890       133  POPC      C214          -24.3153561377       32.2974413161       -3.2522000099  MEMB      127             0.0000000000
     16891       133  POPC      H14R          -23.2428673832       32.1761460960       -2.9832880704  MEMB      127             0.0000000000
     16892       133  POPC      H14S          -24.8587080084       31.4049758019       -2.8722194304  MEMB      127             0.0000000000
     16893       133  POPC      C215          -24.8782361202       33.5200890901       -2.5255233689  MEMB      127             0.0000000000
     16894       133  POPC      H15R          -25.8895392235       33.7404105488       -2.9216188016  MEMB      127             0.0000000000
     16895       133  POPC      H15S          -24.2352507306       34.4049883998       -2.7277119185  MEMB      127             0.0000000000
     16896       133  POPC      C216          -24.9778406660       33.2757276199       -1.0149505599  MEMB      127             0.0000000000
     16897       133  POPC      H16R          -23.9811885781       32.9566672934       -0.6486552503  MEMB      127             0.0000000000
     16898       133  POPC      H16S          -25.6716139819       32.4336692489       -0.8156737713  MEMB      127             0.0000000000
     16899       133  POPC      C217          -25.4170580532       34.5052060783       -0.2190003421  MEMB      127             0.0000000000
     16900       133  POPC      H17R          -26.4331322361       34.8046407599       -0.5448430675  MEMB      127             0.0000000000
     16901       133  POPC      H17S          -24.7452634074       35.3508871586       -0.4788788764  MEMB      127             0.0000000000
     16902       133  POPC      C218          -25.3938637780       34.2772797697        1.2950442100  MEMB      127             0.0000000000
     16903       133  POPC      H18R          -26.0377088324       33.4146536517        1.5674444469  MEMB      127             0.0000000000
     16904       133  POPC      H18S          -25.7570003746       35.1782807080        1.8334567591  MEMB      127             0.0000000000
     16905       133  POPC      H18T          -24.3606124435       34.0560006109        1.6388630003  MEMB      127             0.0000000000
     16906       133  POPC      C33           -29.2623563158       28.9228639398      -15.9159788271  MEMB      127             0.0000000000
     16907       133  POPC      H3X           -28.7812571643       28.4010484369      -16.7738981198  MEMB      127             0.0000000000
     16908       133  POPC      H3Y           -29.8625910857       29.7652929906      -16.3239160196  MEMB      127             0.0000000000
     16909       133  POPC      C34           -30.2034638286       27.9567449313      -15.1763075059  MEMB      127             0.0000000000
     16910       133  POPC      H4X           -31.0480771632       27.7197238241      -15.8610714584  MEMB      127             0.0000000000
     16911       133  POPC      H4Y           -30.6066631740       28.4831320397      -14.2841843888  MEMB      127             0.0000000000
     16912       133  POPC      C35           -29.5913535407       26.6197660684      -14.7004688088  MEMB      127             0.0000000000
     16913       133  POPC      H5X           -28.8940987178       26.2172816592      -15.4700965947  MEMB      127             0.0000000000
     16914       133  POPC      H5Y           -30.4210248396       25.8856132583      -14.5785893295  MEMB      127             0.0000000000
     16915       133  POPC      C36           -28.8688330755       26.7075097520      -13.3430290336  MEMB      127             0.0000000000
     16916       133  POPC      H6X           -29.3265985134       27.5132928492      -12.7290077643  MEMB      127             0.0000000000
     16917       133  POPC      H6Y           -27.8070558745       26.9859729244      -13.5293032360  MEMB      127             0.0000000000
     16918       133  POPC      C37           -28.8905280548       25.4003885922      -12.5330027545  MEMB      127             0.0000000000
     16919       133  POPC      H7X           -28.4980452957       24.5837160913      -13.1809999688  MEMB      127             0.0000000000
     16920       133  POPC      H7Y           -29.9339692229       25.1359112325      -12.2601326641  MEMB      127             0.0000000000
     16921       133  POPC      C38           -28.0142332666       25.4681959799      -11.2693389480  MEMB      127             0.0000000000
     16922       133  POPC      H8X           -26.9820645327       25.7446932912      -11.5870031908  MEMB      127             0.0000000000
     16923       133  POPC      H8Y           -27.9576899570       24.4614887558      -10.8026217678  MEMB      127             0.0000000000
     16924       133  POPC      C39           -28.4821282326       26.4614104423      -10.1903532666  MEMB      127             0.0000000000
     16925       133  POPC      H9X           -28.4879541315       27.4971933279      -10.5890932893  MEMB      127             0.0000000000
     16926       133  POPC      H9Y           -27.7309404191       26.4275528351       -9.3689834171  MEMB      127             0.0000000000
     16927       133  POPC      C310          -29.8684377939       26.1507141195       -9.6144996183  MEMB      127             0.0000000000
     16928       133  POPC      H10X          -29.9360850689       25.0613428490       -9.4103793423  MEMB      127             0.0000000000
     16929       133  POPC      H10Y          -30.6395301133       26.3977978760      -10.3776973961  MEMB      127             0.0000000000
     16930       133  POPC      C311          -30.1704651866       26.9078000789       -8.3114419202  MEMB      127             0.0000000000
     16931       133  POPC      H11X          -31.2450821933       26.7489521480       -8.0626211303  MEMB      127             0.0000000000
     16932       133  POPC      H11Y          -30.0107401556       27.9991432684       -8.4560403106  MEMB      127             0.0000000000
     16933       133  POPC      C312          -29.3270383964       26.4093892940       -7.1258491022  MEMB      127             0.0000000000
     16934       133  POPC      H12X          -28.2617736878       26.6993104643       -7.2573041146  MEMB      127             0.0000000000
     16935       133  POPC      H12Y          -29.3694224652       25.2958811033       -7.1161651472  MEMB      127             0.0000000000
     16936       133  POPC      C313          -29.8283273588       26.9202217101       -5.7685130437  MEMB      127             0.0000000000
     16937       133  POPC      H13X          -30.9274303347       26.7481560452       -5.7146564637  MEMB      127             0.0000000000
     16938       133  POPC      H13Y          -29.6494101912       28.0143287245       -5.6871586107  MEMB      127             0.0000000000
     16939       133  POPC      C314          -29.1717461553       26.1876731032       -4.5876771217  MEMB      127             0.0000000000
     16940       133  POPC      H14X          -28.1053229514       26.4927134372       -4.5017084378  MEMB      127             0.0000000000
     16941       133  POPC      H14Y          -29.1897332315       25.0935125107       -4.8011144167  MEMB      127             0.0000000000
     16942       133  POPC      C315          -29.8983941677       26.4131620609       -3.2533397250  MEMB      127             0.0000000000
     16943       133  POPC      H15X          -29.4809195525       25.7079955923       -2.4978321274  MEMB      127             0.0000000000
     16944       133  POPC      H15Y          -30.9734604710       26.1535148959       -3.3873436710  MEMB      127             0.0000000000
     16945       133  POPC      C316          -29.7890205921       27.8364424966       -2.7044625496  MEMB      127             0.0000000000
     16946       133  POPC      H16X          -28.7312456813       28.0802351518       -2.4691624621  MEMB      127             0.0000000000
     16947       133  POPC      H16Y          -30.3886984724       27.9331613009       -1.7752909648  MEMB      127             0.0000000000
     16948       133  POPC      H16Z          -30.1670801926       28.5785355115       -3.4385136178  MEMB      127             0.0000000000
     16949       134  POPC      N             -25.9402230175      -30.5312852821      -20.2024826581  MEMB      128             0.0000000000
     16950       134  POPC      C12           -26.4939580617      -29.7964376869      -19.0009566320  MEMB      128             0.0000000000
     16951       134  POPC      H12A          -27.3433265179      -29.2046102130      -19.3512598160  MEMB      128             0.0000000000
     16952       134  POPC      H12B          -25.7634622976      -29.0926604398      -18.6224773241  MEMB      128             0.0000000000
     16953       134  POPC      C13           -27.0722891219      -30.8853617509      -21.1098685003  MEMB      128             0.0000000000
     16954       134  POPC      H13A          -27.5373271149      -30.0135552991      -21.5425438545  MEMB      128             0.0000000000
     16955       134  POPC      H13B          -26.7256358779      -31.5421437584      -21.8998461537  MEMB      128             0.0000000000
     16956       134  POPC      H13C          -27.8357302079      -31.4213337710      -20.5485259952  MEMB      128             0.0000000000
     16957       134  POPC      C14           -24.9684130793      -29.6869678475      -20.9640620188  MEMB      128             0.0000000000
     16958       134  POPC      H14A          -25.4427698905      -28.8127097252      -21.3969743051  MEMB      128             0.0000000000
     16959       134  POPC      H14B          -24.1441191102      -29.3690126355      -20.3420790120  MEMB      128             0.0000000000
     16960       134  POPC      H14C          -24.5652251207      -30.2819571700      -21.7846148696  MEMB      128             0.0000000000
     16961       134  POPC      C15           -25.2653693746      -31.8258178863      -19.8633914237  MEMB      128             0.0000000000
     16962       134  POPC      H15A          -24.4589626049      -31.6912488724      -19.1614504655  MEMB      128             0.0000000000
     16963       134  POPC      H15B          -24.8909236882      -32.2845988385      -20.7786783668  MEMB      128             0.0000000000
     16964       134  POPC      H15C          -25.9821540158      -32.5118223834      -19.4174649807  MEMB      128             0.0000000000
     16965       134  POPC      C11           -26.9807345427      -30.6643558187      -17.8203064790  MEMB      128             0.0000000000
     16966       134  POPC      H11A          -27.4485890058      -30.0138497162      -17.0422937875  MEMB      128             0.0000000000
     16967       134  POPC      H11B          -26.1095505911      -31.1486758827      -17.3234007496  MEMB      128             0.0000000000
     16968       134  POPC      P             -29.4191024841      -31.4192532795      -18.4450137149  MEMB      128             0.0000000000
     16969       134  POPC      O13           -29.9320530363      -32.5817997707      -19.2069709132  MEMB      128             0.0000000000
     16970       134  POPC      O14           -29.6162932517      -30.0655149132      -19.0199672800  MEMB      128             0.0000000000
     16971       134  POPC      O12           -27.8648737311      -31.6841263301      -18.2658119821  MEMB      128             0.0000000000
     16972       134  POPC      O11           -29.9336459710      -31.5131664954      -16.9534240555  MEMB      128             0.0000000000
     16973       134  POPC      C1            -29.1734535388      -32.3222603159      -16.0450495831  MEMB      128             0.0000000000
     16974       134  POPC      HA            -28.1702597443      -31.8613211084      -15.8733797536  MEMB      128             0.0000000000
     16975       134  POPC      HB            -29.0135782471      -33.3484412999      -16.4497967074  MEMB      128             0.0000000000
     16976       134  POPC      C2            -29.7868736394      -32.4436260958      -14.6249061311  MEMB      128             0.0000000000
     16977       134  POPC      HS            -30.5583045085      -33.2421524152      -14.6166112581  MEMB      128             0.0000000000
     16978       134  POPC      O21           -30.3249042883      -31.2091276044      -14.1814860654  MEMB      128             0.0000000000
     16979       134  POPC      C21           -31.5594741442      -30.8867345961      -14.4887087881  MEMB      128             0.0000000000
     16980       134  POPC      O22           -32.2447700773      -31.3105448492      -15.4003212599  MEMB      128             0.0000000000
     16981       134  POPC      C22           -32.0403955805      -30.0201311702      -13.3156911624  MEMB      128             0.0000000000
     16982       134  POPC      H2R           -33.0138283284      -30.4210569467      -12.9719006193  MEMB      128             0.0000000000
     16983       134  POPC      H2S           -32.2108078845      -29.0024935552      -13.6810797736  MEMB      128             0.0000000000
     16984       134  POPC      C3            -28.6460520937      -32.8245185623      -13.6315925722  MEMB      128             0.0000000000
     16985       134  POPC      HX            -27.9201081134      -31.9748986533      -13.6811985387  MEMB      128             0.0000000000
     16986       134  POPC      HY            -28.1646903067      -33.7101017281      -14.0544478043  MEMB      128             0.0000000000
     16987       134  POPC      O31           -29.0546811613      -33.1614065415      -12.2814951540  MEMB      128             0.0000000000
     16988       134  POPC      C31           -28.0547762274      -33.0143868747      -11.3960944842  MEMB      128             0.0000000000
     16989       134  POPC      O32           -27.0047348373      -32.4497610178      -11.6227810514  MEMB      128             0.0000000000
     16990       134  POPC      C32           -28.3934356117      -33.7214120996      -10.0903867237  MEMB      128             0.0000000000
     16991       134  POPC      H2X           -27.4652642159      -34.2114348876       -9.7319426988  MEMB      128             0.0000000000
     16992       134  POPC      H2Y           -29.1593596741      -34.4972064999      -10.2837570283  MEMB      128             0.0000000000
     16993       134  POPC      C23           -31.0281663076      -29.9013102202      -12.1397702110  MEMB      128             0.0000000000
     16994       134  POPC      H3R           -30.0470529163      -29.5621271283      -12.5459357337  MEMB      128             0.0000000000
     16995       134  POPC      H3S           -30.8433046993      -30.8917746781      -11.6758150978  MEMB      128             0.0000000000
     16996       134  POPC      C24           -31.4647713803      -28.8938392357      -11.0713221792  MEMB      128             0.0000000000
     16997       134  POPC      H4R           -31.4247109780      -29.3625098039      -10.0638866952  MEMB      128             0.0000000000
     16998       134  POPC      H4S           -32.5236968275      -28.6078791602      -11.2682169437  MEMB      128             0.0000000000
     16999       134  POPC      C25           -30.5725632517      -27.6481342977      -11.0731884662  MEMB      128             0.0000000000
     17000       134  POPC      H5R           -31.0454891625      -26.8373673559      -10.4759018784  MEMB      128             0.0000000000
     17001       134  POPC      H5S           -30.5059037367      -27.2925185774      -12.1254894526  MEMB      128             0.0000000000
     17002       134  POPC      C26           -29.1578541790      -27.9065243100      -10.5234733783  MEMB      128             0.0000000000
     17003       134  POPC      H6R           -28.7157511945      -28.8094881036      -10.9986325346  MEMB      128             0.0000000000
     17004       134  POPC      H6S           -29.2263665262      -28.1069715079       -9.4323526242  MEMB      128             0.0000000000
     17005       134  POPC      C27           -28.2175143461      -26.7228054063      -10.7921028847  MEMB      128             0.0000000000
     17006       134  POPC      H7R           -28.6480506813      -25.8145049415      -10.3209879303  MEMB      128             0.0000000000
     17007       134  POPC      H7S           -28.2027596123      -26.5712180808      -11.8950769226  MEMB      128             0.0000000000
     17008       134  POPC      C28           -26.7539026771      -26.9145638103      -10.3521368313  MEMB      128             0.0000000000
     17009       134  POPC      H8R           -26.1643195300      -26.0694074561      -10.7738016312  MEMB      128             0.0000000000
     17010       134  POPC      H8S           -26.3573724407      -27.8307940182      -10.8433368891  MEMB      128             0.0000000000
     17011       134  POPC      C29           -26.5776607101      -26.9421055016       -8.8558024057  MEMB      128             0.0000000000
     17012       134  POPC      H91           -26.4988227543      -25.9491676212       -8.3868366871  MEMB      128             0.0000000000
     17013       134  POPC      C210          -26.5570828551      -28.0404202332       -8.0783075377  MEMB      128             0.0000000000
     17014       134  POPC      H101          -26.4534340787      -27.9253347938       -6.9886722018  MEMB      128             0.0000000000
     17015       134  POPC      C211          -26.7084025185      -29.4654079892       -8.5515149346  MEMB      128             0.0000000000
     17016       134  POPC      H11R          -26.6872319772      -29.5436969525       -9.6619061075  MEMB      128             0.0000000000
     17017       134  POPC      H11S          -27.7076366523      -29.8362330620       -8.2429257628  MEMB      128             0.0000000000
     17018       134  POPC      C212          -25.6509232242      -30.4432087145       -8.0038702494  MEMB      128             0.0000000000
     17019       134  POPC      H12R          -24.6353891505      -30.1384065235       -8.3353350738  MEMB      128             0.0000000000
     17020       134  POPC      H12S          -25.8517628165      -31.4349848310       -8.4736105724  MEMB      128             0.0000000000
     17021       134  POPC      C213          -25.7049859143      -30.6190555733       -6.4753288413  MEMB      128             0.0000000000
     17022       134  POPC      H13R          -25.6634405147      -31.7088569870       -6.2482314168  MEMB      128             0.0000000000
     17023       134  POPC      H13S          -26.6861195077      -30.2576686692       -6.1050661825  MEMB      128             0.0000000000
     17024       134  POPC      C214          -24.5446192927      -29.9385448732       -5.7261000780  MEMB      128             0.0000000000
     17025       134  POPC      H14R          -23.8775127281      -29.4286632114       -6.4552423676  MEMB      128             0.0000000000
     17026       134  POPC      H14S          -23.9399937762      -30.7387795425       -5.2413968464  MEMB      128             0.0000000000
     17027       134  POPC      C215          -24.9390657339      -28.9153684314       -4.6435031081  MEMB      128             0.0000000000
     17028       134  POPC      H15R          -25.3228704370      -27.9893435639       -5.1205678340  MEMB      128             0.0000000000
     17029       134  POPC      H15S          -24.0222601542      -28.6429847486       -4.0747066869  MEMB      128             0.0000000000
     17030       134  POPC      C216          -25.9974420199      -29.4285290517       -3.6630933492  MEMB      128             0.0000000000
     17031       134  POPC      H16R          -25.9186948719      -30.5336966061       -3.6007452031  MEMB      128             0.0000000000
     17032       134  POPC      H16S          -26.9913162058      -29.1842914982       -4.0909527035  MEMB      128             0.0000000000
     17033       134  POPC      C217          -25.9012077662      -28.8574944029       -2.2401616482  MEMB      128             0.0000000000
     17034       134  POPC      H17R          -24.8656550328      -29.0110577631       -1.8594251605  MEMB      128             0.0000000000
     17035       134  POPC      H17S          -26.5834523228      -29.4405256991       -1.5786107674  MEMB      128             0.0000000000
     17036       134  POPC      C218          -26.2774051098      -27.3792540087       -2.1386176874  MEMB      128             0.0000000000
     17037       134  POPC      H18R          -25.6160834238      -26.7722492599       -2.7898564429  MEMB      128             0.0000000000
     17038       134  POPC      H18S          -26.1658102307      -27.0227489883       -1.0916930679  MEMB      128             0.0000000000
     17039       134  POPC      H18T          -27.3300246258      -27.2220943626       -2.4588925226  MEMB      128             0.0000000000
     17040       134  POPC      C33           -28.8938094597      -32.7117119974       -9.0456803810  MEMB      128             0.0000000000
     17041       134  POPC      H3X           -29.7424199516      -32.1378598015       -9.4888240874  MEMB      128             0.0000000000
     17042       134  POPC      H3Y           -28.0892579009      -31.9780653096       -8.8194288561  MEMB      128             0.0000000000
     17043       134  POPC      C34           -29.3808415492      -33.3645491326       -7.7429368184  MEMB      128             0.0000000000
     17044       134  POPC      H4X           -28.4942393922      -33.6017582346       -7.1123568819  MEMB      128             0.0000000000
     17045       134  POPC      H4Y           -29.9001294118      -34.3230585096       -7.9680410573  MEMB      128             0.0000000000
     17046       134  POPC      C35           -30.3516838461      -32.4514889059       -6.9731677516  MEMB      128             0.0000000000
     17047       134  POPC      H5X           -30.4773938387      -32.8377636674       -5.9372689767  MEMB      128             0.0000000000
     17048       134  POPC      H5Y           -31.3470875389      -32.4694249916       -7.4681789663  MEMB      128             0.0000000000
     17049       134  POPC      C36           -29.8495760775      -31.0052869398       -6.9347594375  MEMB      128             0.0000000000
     17050       134  POPC      H6X           -29.8418199261      -30.5567208993       -7.9534046189  MEMB      128             0.0000000000
     17051       134  POPC      H6Y           -28.7931812706      -31.0619659674       -6.5823024876  MEMB      128             0.0000000000
     17052       134  POPC      C37           -30.6216766736      -30.0467851891       -6.0210924274  MEMB      128             0.0000000000
     17053       134  POPC      H7X           -30.9922369164      -30.6138669664       -5.1435017657  MEMB      128             0.0000000000
     17054       134  POPC      H7Y           -31.5156914390      -29.6396028260       -6.5415625384  MEMB      128             0.0000000000
     17055       134  POPC      C38           -29.6729823365      -28.9172277740       -5.5904515486  MEMB      128             0.0000000000
     17056       134  POPC      H8X           -29.5360723809      -28.2067169294       -6.4364202903  MEMB      128             0.0000000000
     17057       134  POPC      H8Y           -28.6737571082      -29.3682706420       -5.3951488539  MEMB      128             0.0000000000
     17058       134  POPC      C39           -30.0479380190      -28.1518507853       -4.3193969659  MEMB      128             0.0000000000
     17059       134  POPC      H9X           -30.9126384976      -27.4814687558       -4.5256770519  MEMB      128             0.0000000000
     17060       134  POPC      H9Y           -29.1811352313      -27.4989329803       -4.0609496631  MEMB      128             0.0000000000
     17061       134  POPC      C310          -30.3786548402      -29.0131839657       -3.0877887280  MEMB      128             0.0000000000
     17062       134  POPC      H10X          -31.4412043607      -29.3393859232       -3.1562092381  MEMB      128             0.0000000000
     17063       134  POPC      H10Y          -30.2859918654      -28.3371801501       -2.2112845761  MEMB      128             0.0000000000
     17064       134  POPC      C311          -29.5124198474      -30.2624236544       -2.8283172695  MEMB      128             0.0000000000
     17065       134  POPC      H11X          -28.4459643039      -30.0434672586       -3.0029260930  MEMB      128             0.0000000000
     17066       134  POPC      H11Y          -29.8103652394      -31.0599933243       -3.5373696716  MEMB      128             0.0000000000
     17067       134  POPC      C312          -29.6574846585      -30.7593089603       -1.3823429798  MEMB      128             0.0000000000
     17068       134  POPC      H12X          -30.7350140472      -30.6992537246       -1.1161395711  MEMB      128             0.0000000000
     17069       134  POPC      H12Y          -29.1075740961      -30.0585174692       -0.7150894108  MEMB      128             0.0000000000
     17070       134  POPC      C313          -29.1872222618      -32.1877351026       -1.0577359326  MEMB      128             0.0000000000
     17071       134  POPC      H13X          -30.0082263717      -32.6935959619       -0.5109926236  MEMB      128             0.0000000000
     17072       134  POPC      H13Y          -28.3460714419      -32.1382923068       -0.3360495296  MEMB      128             0.0000000000
     17073       134  POPC      C314          -28.7867109302      -33.0750276148       -2.2389617356  MEMB      128             0.0000000000
     17074       134  POPC      H14X          -27.9306480705      -32.6077648430       -2.7668050875  MEMB      128             0.0000000000
     17075       134  POPC      H14Y          -29.6160468352      -33.1623178509       -2.9717253648  MEMB      128             0.0000000000
     17076       134  POPC      C315          -28.4149292163      -34.4838280126       -1.7707950551  MEMB      128             0.0000000000
     17077       134  POPC      H15X          -29.3160932357      -34.9558111838       -1.3221948175  MEMB      128             0.0000000000
     17078       134  POPC      H15Y          -27.6580678178      -34.4040593386       -0.9609953825  MEMB      128             0.0000000000
     17079       134  POPC      C316          -27.8781156856      -35.3718022884       -2.8895843890  MEMB      128             0.0000000000
     17080       134  POPC      H16X          -27.0446598477      -34.8616753355       -3.4158643401  MEMB      128             0.0000000000
     17081       134  POPC      H16Y          -28.6774959931      -35.5948458636       -3.6287439789  MEMB      128             0.0000000000
     17082       134  POPC      H16Z          -27.4920631107      -36.3285536491       -2.4759720519  MEMB      128             0.0000000000
     17083       135  POPC      N             -32.9034858893      -23.9524415247      -19.9815560893  MEMB      129             0.0000000000
     17084       135  POPC      C12           -34.3833427086      -24.2860801308      -19.8460283388  MEMB      129             0.0000000000
     17085       135  POPC      H12A          -34.6314114480      -25.0387695413      -20.6016684583  MEMB      129             0.0000000000
     17086       135  POPC      H12B          -34.9541122506      -23.4054619173      -20.0878350003  MEMB      129             0.0000000000
     17087       135  POPC      C13           -32.1152049617      -25.2167098060      -19.9258853187  MEMB      129             0.0000000000
     17088       135  POPC      H13A          -31.0500569642      -25.0600312238      -20.0039660747  MEMB      129             0.0000000000
     17089       135  POPC      H13B          -32.3397041054      -25.7399811123      -18.9956542747  MEMB      129             0.0000000000
     17090       135  POPC      H13C          -32.3988916282      -25.9277141684      -20.7011183056  MEMB      129             0.0000000000
     17091       135  POPC      C14           -32.6896376444      -23.2607184513      -21.2881709967  MEMB      129             0.0000000000
     17092       135  POPC      H14A          -33.1471426099      -22.2792717315      -21.2928161262  MEMB      129             0.0000000000
     17093       135  POPC      H14B          -31.6288172002      -23.1427757295      -21.4916321146  MEMB      129             0.0000000000
     17094       135  POPC      H14C          -33.1204586773      -23.8329446287      -22.1071896078  MEMB      129             0.0000000000
     17095       135  POPC      C15           -32.4132289954      -23.0669324869      -18.8853960880  MEMB      129             0.0000000000
     17096       135  POPC      H15A          -32.6142361053      -23.5476358401      -17.9376156204  MEMB      129             0.0000000000
     17097       135  POPC      H15B          -32.9063177982      -22.1060636404      -18.9139461552  MEMB      129             0.0000000000
     17098       135  POPC      H15C          -31.3424014725      -22.9072406349      -18.9973982967  MEMB      129             0.0000000000
     17099       135  POPC      C11           -34.9032007871      -24.8018511977      -18.4847679836  MEMB      129             0.0000000000
     17100       135  POPC      H11A          -35.9981853990      -25.0043600234      -18.5720236092  MEMB      129             0.0000000000
     17101       135  POPC      H11B          -34.8018142731      -24.0004155128      -17.7195895353  MEMB      129             0.0000000000
     17102       135  POPC      P             -34.6094653117      -27.4060951047      -18.5018100321  MEMB      129             0.0000000000
     17103       135  POPC      O13           -34.1746823300      -27.5368267877      -19.9139443675  MEMB      129             0.0000000000
     17104       135  POPC      O14           -36.0447822668      -27.6389985111      -18.2168104634  MEMB      129             0.0000000000
     17105       135  POPC      O12           -34.1857545063      -25.9475167555      -18.0511257228  MEMB      129             0.0000000000
     17106       135  POPC      O11           -33.6640223058      -28.3408115956      -17.6331883107  MEMB      129             0.0000000000
     17107       135  POPC      C1            -32.2720408116      -27.9937638851      -17.4744968328  MEMB      129             0.0000000000
     17108       135  POPC      HA            -31.8764875674      -27.3601533691      -18.2977091508  MEMB      129             0.0000000000
     17109       135  POPC      HB            -31.6787759132      -28.9362046342      -17.5110241714  MEMB      129             0.0000000000
     17110       135  POPC      C2            -31.9829262223      -27.3193983643      -16.0987487444  MEMB      129             0.0000000000
     17111       135  POPC      HS            -32.0700315100      -28.1501962107      -15.3740567026  MEMB      129             0.0000000000
     17112       135  POPC      O21           -32.8915505180      -26.2391283439      -15.8179939383  MEMB      129             0.0000000000
     17113       135  POPC      C21           -33.7615068903      -26.4808808145      -14.8465612938  MEMB      129             0.0000000000
     17114       135  POPC      O22           -33.9287929288      -27.5405783825      -14.2759581628  MEMB      129             0.0000000000
     17115       135  POPC      C22           -34.4308125666      -25.1706409938      -14.4065159785  MEMB      129             0.0000000000
     17116       135  POPC      H2R           -35.5073002677      -25.3829881260      -14.2575577794  MEMB      129             0.0000000000
     17117       135  POPC      H2S           -34.3370222047      -24.4420821184      -15.2367686205  MEMB      129             0.0000000000
     17118       135  POPC      C3            -30.5552007344      -26.7457041320      -15.8990969435  MEMB      129             0.0000000000
     17119       135  POPC      HX            -30.3346982645      -26.0456870307      -16.7382597446  MEMB      129             0.0000000000
     17120       135  POPC      HY            -29.8211222061      -27.5816605510      -15.9181198711  MEMB      129             0.0000000000
     17121       135  POPC      O31           -30.5245125526      -26.0530811310      -14.6289184468  MEMB      129             0.0000000000
     17122       135  POPC      C31           -29.4131240090      -25.3853647223      -14.3560168356  MEMB      129             0.0000000000
     17123       135  POPC      O32           -28.4063846590      -25.4062841192      -15.0423728145  MEMB      129             0.0000000000
     17124       135  POPC      C32           -29.6829159086      -24.5461485584      -13.1042303298  MEMB      129             0.0000000000
     17125       135  POPC      H2X           -29.9647359656      -25.2483654617      -12.2970282360  MEMB      129             0.0000000000
     17126       135  POPC      H2Y           -30.5650873033      -23.9150007437      -13.3337019060  MEMB      129             0.0000000000
     17127       135  POPC      C23           -33.8319686464      -24.5863175323      -13.0929268903  MEMB      129             0.0000000000
     17128       135  POPC      H3R           -34.2145785278      -23.5443465942      -12.9893325049  MEMB      129             0.0000000000
     17129       135  POPC      H3S           -32.7244093699      -24.5424301655      -13.1710930112  MEMB      129             0.0000000000
     17130       135  POPC      C24           -34.2371078498      -25.3656978450      -11.8264685457  MEMB      129             0.0000000000
     17131       135  POPC      H4R           -33.8153399193      -26.3941806164      -11.8693223766  MEMB      129             0.0000000000
     17132       135  POPC      H4S           -35.3462958669      -25.4616696580      -11.8186446547  MEMB      129             0.0000000000
     17133       135  POPC      C25           -33.8008938205      -24.7105129274      -10.5010493310  MEMB      129             0.0000000000
     17134       135  POPC      H5R           -34.1990963401      -23.6724403042      -10.4781056743  MEMB      129             0.0000000000
     17135       135  POPC      H5S           -32.6955405728      -24.6419105043      -10.4503008362  MEMB      129             0.0000000000
     17136       135  POPC      C26           -34.3156236959      -25.4508733039       -9.2483286094  MEMB      129             0.0000000000
     17137       135  POPC      H6R           -35.3211929827      -25.8696050727       -9.4700305328  MEMB      129             0.0000000000
     17138       135  POPC      H6S           -34.4302666933      -24.7249326919       -8.4125725945  MEMB      129             0.0000000000
     17139       135  POPC      C27           -33.3876543124      -26.5852654896       -8.7820418217  MEMB      129             0.0000000000
     17140       135  POPC      H7R           -32.3742210348      -26.1831205689       -8.5634884897  MEMB      129             0.0000000000
     17141       135  POPC      H7S           -33.2856751472      -27.2896645450       -9.6387877904  MEMB      129             0.0000000000
     17142       135  POPC      C28           -33.9117633531      -27.4015483387       -7.5769074229  MEMB      129             0.0000000000
     17143       135  POPC      H8R           -33.3851622400      -28.3814518158       -7.6092067400  MEMB      129             0.0000000000
     17144       135  POPC      H8S           -34.9876789696      -27.6198045370       -7.7516924177  MEMB      129             0.0000000000
     17145       135  POPC      C29           -33.6507623623      -26.7992748259       -6.2167582121  MEMB      129             0.0000000000
     17146       135  POPC      H91           -32.6419597041      -26.3743474773       -6.0992101827  MEMB      129             0.0000000000
     17147       135  POPC      C210          -34.4792100767      -26.7885868615       -5.1530129168  MEMB      129             0.0000000000
     17148       135  POPC      H101          -34.1423800826      -26.3285301401       -4.2140839834  MEMB      129             0.0000000000
     17149       135  POPC      C211          -35.8603926236      -27.3778319870       -5.0816095346  MEMB      129             0.0000000000
     17150       135  POPC      H11R          -36.3041708010      -27.4303849209       -6.0969409956  MEMB      129             0.0000000000
     17151       135  POPC      H11S          -36.5359951615      -26.7411133814       -4.4687861541  MEMB      129             0.0000000000
     17152       135  POPC      C212          -35.8472131533      -28.8033278466       -4.5098579652  MEMB      129             0.0000000000
     17153       135  POPC      H12R          -34.9873529675      -29.3531884284       -4.9444321204  MEMB      129             0.0000000000
     17154       135  POPC      H12S          -36.7822962945      -29.3180958282       -4.8265410198  MEMB      129             0.0000000000
     17155       135  POPC      C213          -35.7308627909      -28.9041164381       -2.9861900370  MEMB      129             0.0000000000
     17156       135  POPC      H13R          -36.3772887164      -28.1462191868       -2.5012328810  MEMB      129             0.0000000000
     17157       135  POPC      H13S          -34.6788257356      -28.6857192689       -2.6950304145  MEMB      129             0.0000000000
     17158       135  POPC      C214          -36.1402692403      -30.2953753951       -2.4801234733  MEMB      129             0.0000000000
     17159       135  POPC      H14R          -35.8336842485      -31.0607559676       -3.2213954548  MEMB      129             0.0000000000
     17160       135  POPC      H14S          -37.2385330926      -30.3810981526       -2.3841163754  MEMB      129             0.0000000000
     17161       135  POPC      C215          -35.4999342737      -30.6663060106       -1.1482073952  MEMB      129             0.0000000000
     17162       135  POPC      H15R          -34.4068166826      -30.5389141103       -1.2589077012  MEMB      129             0.0000000000
     17163       135  POPC      H15S          -35.7026619768      -31.7424282457       -0.9387414660  MEMB      129             0.0000000000
     17164       135  POPC      C216          -35.9865131574      -29.8331104526        0.0380529354  MEMB      129             0.0000000000
     17165       135  POPC      H16R          -37.0988145082      -29.8243867027        0.0397749569  MEMB      129             0.0000000000
     17166       135  POPC      H16S          -35.6400693793      -28.7814320306       -0.0624663085  MEMB      129             0.0000000000
     17167       135  POPC      C217          -35.5052319616      -30.4272308601        1.3634704628  MEMB      129             0.0000000000
     17168       135  POPC      H17R          -35.9181804518      -31.4595965585        1.4365350745  MEMB      129             0.0000000000
     17169       135  POPC      H17S          -35.9366098981      -29.8390411349        2.2045197965  MEMB      129             0.0000000000
     17170       135  POPC      C218          -33.9831766279      -30.4977858413        1.5139436204  MEMB      129             0.0000000000
     17171       135  POPC      H18R          -33.6966596785      -31.3252699117        2.1962297886  MEMB      129             0.0000000000
     17172       135  POPC      H18S          -33.5915371009      -29.5423584126        1.9228997535  MEMB      129             0.0000000000
     17173       135  POPC      H18T          -33.4746356432      -30.6928447618        0.5523198252  MEMB      129             0.0000000000
     17174       135  POPC      C33           -28.5361300713      -23.6375625614      -12.5994428941  MEMB      129             0.0000000000
     17175       135  POPC      H3X           -28.4159840728      -22.7893779666      -13.3108867004  MEMB      129             0.0000000000
     17176       135  POPC      H3Y           -27.5692379630      -24.1927820750      -12.5774425300  MEMB      129             0.0000000000
     17177       135  POPC      C34           -28.7925493475      -23.0610015037      -11.1904903353  MEMB      129             0.0000000000
     17178       135  POPC      H4X           -28.2154363589      -22.1146038819      -11.0852313932  MEMB      129             0.0000000000
     17179       135  POPC      H4Y           -28.3917400174      -23.7573721637      -10.4251730255  MEMB      129             0.0000000000
     17180       135  POPC      C35           -30.2781747656      -22.7999998084      -10.8861139753  MEMB      129             0.0000000000
     17181       135  POPC      H5X           -30.8514102365      -23.7480824781      -10.9503228431  MEMB      129             0.0000000000
     17182       135  POPC      H5Y           -30.6727774699      -22.1072523648      -11.6634162793  MEMB      129             0.0000000000
     17183       135  POPC      C36           -30.5396058039      -22.1843720739       -9.5056624462  MEMB      129             0.0000000000
     17184       135  POPC      H6X           -31.5713622127      -21.7712440950       -9.5055123345  MEMB      129             0.0000000000
     17185       135  POPC      H6Y           -29.8365115451      -21.3371510548       -9.3591055599  MEMB      129             0.0000000000
     17186       135  POPC      C37           -30.4231276168      -23.1731857394       -8.3346413008  MEMB      129             0.0000000000
     17187       135  POPC      H7X           -29.3893231499      -23.5871620866       -8.3302437319  MEMB      129             0.0000000000
     17188       135  POPC      H7Y           -31.1238260231      -24.0225214387       -8.4844142375  MEMB      129             0.0000000000
     17189       135  POPC      C38           -30.6887473461      -22.5177364379       -6.9670844737  MEMB      129             0.0000000000
     17190       135  POPC      H8X           -30.0735793718      -21.5943845152       -6.9039572788  MEMB      129             0.0000000000
     17191       135  POPC      H8Y           -30.3457927666      -23.2020894879       -6.1635649187  MEMB      129             0.0000000000
     17192       135  POPC      C39           -32.1512210317      -22.1325189985       -6.6943664582  MEMB      129             0.0000000000
     17193       135  POPC      H9X           -32.5952665689      -21.7185855659       -7.6255274217  MEMB      129             0.0000000000
     17194       135  POPC      H9Y           -32.1918008999      -21.3205146177       -5.9368076164  MEMB      129             0.0000000000
     17195       135  POPC      C310          -33.0177069129      -23.3037916974       -6.2090252665  MEMB      129             0.0000000000
     17196       135  POPC      H10X          -32.7149172188      -24.2331912613       -6.7326283976  MEMB      129             0.0000000000
     17197       135  POPC      H10Y          -34.0676057457      -23.0832611561       -6.5169623599  MEMB      129             0.0000000000
     17198       135  POPC      C311          -33.0407537565      -23.5217833947       -4.6813562602  MEMB      129             0.0000000000
     17199       135  POPC      H11X          -33.9010809530      -24.1906751021       -4.4598670858  MEMB      129             0.0000000000
     17200       135  POPC      H11Y          -33.2527876500      -22.5602270161       -4.1724791172  MEMB      129             0.0000000000
     17201       135  POPC      C312          -31.7731565031      -24.1480311479       -4.0736542817  MEMB      129             0.0000000000
     17202       135  POPC      H12X          -31.0181415129      -23.3502379740       -3.8991372262  MEMB      129             0.0000000000
     17203       135  POPC      H12Y          -31.3362908667      -24.8583482296       -4.8110295324  MEMB      129             0.0000000000
     17204       135  POPC      C313          -32.0153436845      -24.9240906656       -2.7640410378  MEMB      129             0.0000000000
     17205       135  POPC      H13X          -31.0320925677      -25.2409752558       -2.3477400307  MEMB      129             0.0000000000
     17206       135  POPC      H13Y          -32.5780575483      -25.8525426719       -3.0003071714  MEMB      129             0.0000000000
     17207       135  POPC      C314          -32.7942836309      -24.1630913309       -1.6766345260  MEMB      129             0.0000000000
     17208       135  POPC      H14X          -33.7382385874      -23.7535321803       -2.0898955918  MEMB      129             0.0000000000
     17209       135  POPC      H14Y          -32.1804219129      -23.3124436356       -1.3182610240  MEMB      129             0.0000000000
     17210       135  POPC      C315          -33.1279841732      -25.0625015645       -0.4813478695  MEMB      129             0.0000000000
     17211       135  POPC      H15X          -32.1739384723      -25.5234391181       -0.1411272005  MEMB      129             0.0000000000
     17212       135  POPC      H15Y          -33.8073406926      -25.8773065621       -0.8232603215  MEMB      129             0.0000000000
     17213       135  POPC      C316          -33.7691129851      -24.3587370801        0.7100228630  MEMB      129             0.0000000000
     17214       135  POPC      H16X          -33.2088007502      -23.4374778759        0.9716945248  MEMB      129             0.0000000000
     17215       135  POPC      H16Y          -33.7815368279      -25.0291049451        1.5972096740  MEMB      129             0.0000000000
     17216       135  POPC      H16Z          -34.8120236826      -24.0703440942        0.4823488994  MEMB      129             0.0000000000
     17217       136  POPC      N              33.3084366119       31.6025656697      -18.4598498612  MEMB      130             0.0000000000
     17218       136  POPC      C12            31.8382339452       31.4021179851      -18.1560202787  MEMB      130             0.0000000000
     17219       136  POPC      H12A           31.5192552154       32.2288882783      -17.5143723278  MEMB      130             0.0000000000
     17220       136  POPC      H12B           31.6702905952       30.4900412646      -17.6105635146  MEMB      130             0.0000000000
     17221       136  POPC      C13            33.7044154485       30.7381860333      -19.6055171522  MEMB      130             0.0000000000
     17222       136  POPC      H13A           33.7595869810       29.6981425414      -19.3374372975  MEMB      130             0.0000000000
     17223       136  POPC      H13B           32.9724206037       30.8653971451      -20.4088088561  MEMB      130             0.0000000000
     17224       136  POPC      H13C           34.6524979472       31.0762065163      -20.0139301255  MEMB      130             0.0000000000
     17225       136  POPC      C14            33.4531404889       33.0404794498      -18.8553788094  MEMB      130             0.0000000000
     17226       136  POPC      H14A           33.1565252547       33.7149527662      -18.0546054937  MEMB      130             0.0000000000
     17227       136  POPC      H14B           34.4564081858       33.3000225225      -19.1638874135  MEMB      130             0.0000000000
     17228       136  POPC      H14C           32.7540474061       33.2468444988      -19.6757228389  MEMB      130             0.0000000000
     17229       136  POPC      C15            34.2096354644       31.3254864515      -17.3084307924  MEMB      130             0.0000000000
     17230       136  POPC      H15A           35.2385114485       31.3375236596      -17.6658166903  MEMB      130             0.0000000000
     17231       136  POPC      H15B           33.9746902478       30.3677147987      -16.8589057228  MEMB      130             0.0000000000
     17232       136  POPC      H15C           34.1327425261       32.1084176596      -16.5611890657  MEMB      130             0.0000000000
     17233       136  POPC      C11            30.8601629172       31.4154778401      -19.3600425162  MEMB      130             0.0000000000
     17234       136  POPC      H11A           29.8413658402       31.1258973894      -19.0036905711  MEMB      130             0.0000000000
     17235       136  POPC      H11B           31.1253944544       30.6363343068      -20.1056195660  MEMB      130             0.0000000000
     17236       136  POPC      P              29.9172564655       33.8243029010      -19.4045953197  MEMB      130             0.0000000000
     17237       136  POPC      O13            28.5034538164       33.4021114421      -19.5350152951  MEMB      130             0.0000000000
     17238       136  POPC      O14            30.2535579565       35.1228623234      -20.0260358722  MEMB      130             0.0000000000
     17239       136  POPC      O12            30.8601601845       32.6875997268      -19.9980271080  MEMB      130             0.0000000000
     17240       136  POPC      O11            30.3294883794       33.8253715346      -17.8835735972  MEMB      130             0.0000000000
     17241       136  POPC      C1             29.3688391041       33.8676466158      -16.8308546735  MEMB      130             0.0000000000
     17242       136  POPC      HA             28.3058614523       33.8060194150      -17.1606688265  MEMB      130             0.0000000000
     17243       136  POPC      HB             29.4887367213       34.8534695362      -16.3197833489  MEMB      130             0.0000000000
     17244       136  POPC      C2             29.6388215581       32.7828663422      -15.7515801853  MEMB      130             0.0000000000
     17245       136  POPC      HS             29.1418641702       33.1433505485      -14.8129464375  MEMB      130             0.0000000000
     17246       136  POPC      O21            31.0547059490       32.5487285976      -15.5916051040  MEMB      130             0.0000000000
     17247       136  POPC      C21            31.5510556134       33.3301287512      -14.6673486277  MEMB      130             0.0000000000
     17248       136  POPC      O22            30.9730929303       34.2596060510      -14.1322832842  MEMB      130             0.0000000000
     17249       136  POPC      C22            32.8558847198       32.7176223947      -14.1600754459  MEMB      130             0.0000000000
     17250       136  POPC      H2R            33.2044536774       33.3820403823      -13.3472392469  MEMB      130             0.0000000000
     17251       136  POPC      H2S            33.5827389615       32.7432312010      -14.9881913041  MEMB      130             0.0000000000
     17252       136  POPC      C3             29.0164315038       31.3909759633      -15.9508589941  MEMB      130             0.0000000000
     17253       136  POPC      HX             29.5367136616       30.8588389357      -16.7724182873  MEMB      130             0.0000000000
     17254       136  POPC      HY             27.9378755471       31.4991464158      -16.2098279619  MEMB      130             0.0000000000
     17255       136  POPC      O31            29.2229076529       30.7205476742      -14.6890328035  MEMB      130             0.0000000000
     17256       136  POPC      C31            28.3997352089       29.7385315044      -14.3992596703  MEMB      130             0.0000000000
     17257       136  POPC      O32            27.6438983434       29.1907679298      -15.1811619074  MEMB      130             0.0000000000
     17258       136  POPC      C32            28.4632371081       29.5047278477      -12.8826061147  MEMB      130             0.0000000000
     17259       136  POPC      H2X            27.5106992563       29.0112811440      -12.6032785045  MEMB      130             0.0000000000
     17260       136  POPC      H2Y            28.5170844285       30.4887689263      -12.3798410724  MEMB      130             0.0000000000
     17261       136  POPC      C23            32.7487132200       31.2580244637      -13.6726422172  MEMB      130             0.0000000000
     17262       136  POPC      H3R            32.4090306896       30.6265251818      -14.5203251278  MEMB      130             0.0000000000
     17263       136  POPC      H3S            31.9723223244       31.1873256146      -12.8818219767  MEMB      130             0.0000000000
     17264       136  POPC      C24            34.0979840854       30.7157897379      -13.1674806221  MEMB      130             0.0000000000
     17265       136  POPC      H4R            34.8335832088       30.7417242591      -14.0009471886  MEMB      130             0.0000000000
     17266       136  POPC      H4S            33.9823414289       29.6668845539      -12.8263691124  MEMB      130             0.0000000000
     17267       136  POPC      C25            34.6898014961       31.4701251030      -11.9739857965  MEMB      130             0.0000000000
     17268       136  POPC      H5R            34.8584141825       32.5262807749      -12.2667033382  MEMB      130             0.0000000000
     17269       136  POPC      H5S            35.6903114773       31.0477191756      -11.7268393090  MEMB      130             0.0000000000
     17270       136  POPC      C26            33.8071194769       31.3842238314      -10.7229088357  MEMB      130             0.0000000000
     17271       136  POPC      H6R            34.0696124963       30.4561759275      -10.1651526409  MEMB      130             0.0000000000
     17272       136  POPC      H6S            32.7337192307       31.3054758917      -10.9897376180  MEMB      130             0.0000000000
     17273       136  POPC      C27            33.9490917288       32.6001159053       -9.8074178478  MEMB      130             0.0000000000
     17274       136  POPC      H7R            35.0261402619       32.7127908068       -9.5938658712  MEMB      130             0.0000000000
     17275       136  POPC      H7S            33.4454244884       32.4050049688       -8.8376799625  MEMB      130             0.0000000000
     17276       136  POPC      C28            33.4272575459       33.9233370528      -10.3966181738  MEMB      130             0.0000000000
     17277       136  POPC      H8R            33.8831617471       34.0988268018      -11.3878762677  MEMB      130             0.0000000000
     17278       136  POPC      H8S            33.8095054793       34.7337245039       -9.7391847978  MEMB      130             0.0000000000
     17279       136  POPC      C29            31.9283093443       33.9556208577      -10.5472451760  MEMB      130             0.0000000000
     17280       136  POPC      H91            31.5204386860       33.2378714197      -11.2747191636  MEMB      130             0.0000000000
     17281       136  POPC      C210           31.0851566625       34.7733148829       -9.9000853040  MEMB      130             0.0000000000
     17282       136  POPC      H101           30.0065469047       34.7032858403      -10.1085941554  MEMB      130             0.0000000000
     17283       136  POPC      C211           31.4707046723       35.8230999647       -8.8934340066  MEMB      130             0.0000000000
     17284       136  POPC      H11R           30.9717125533       36.7805077733       -9.1476208692  MEMB      130             0.0000000000
     17285       136  POPC      H11S           32.5557971890       36.0603947284       -8.9095880382  MEMB      130             0.0000000000
     17286       136  POPC      C212           31.0975732061       35.4106961451       -7.4625260316  MEMB      130             0.0000000000
     17287       136  POPC      H12R           30.0428956864       35.0667398752       -7.3992119433  MEMB      130             0.0000000000
     17288       136  POPC      H12S           31.1819484200       36.3285535388       -6.8458012441  MEMB      130             0.0000000000
     17289       136  POPC      C213           32.0458616686       34.3502577383       -6.8765761006  MEMB      130             0.0000000000
     17290       136  POPC      H13R           33.0792982543       34.7597577536       -6.9212612805  MEMB      130             0.0000000000
     17291       136  POPC      H13S           32.0152752221       33.4344750994       -7.4973214548  MEMB      130             0.0000000000
     17292       136  POPC      C214           31.7235664268       34.0096664987       -5.4177454221  MEMB      130             0.0000000000
     17293       136  POPC      H14R           30.7613491674       33.4642429721       -5.3409548148  MEMB      130             0.0000000000
     17294       136  POPC      H14S           31.5883612071       34.9851323815       -4.9175878312  MEMB      130             0.0000000000
     17295       136  POPC      C215           32.8312678825       33.2297110788       -4.6795434844  MEMB      130             0.0000000000
     17296       136  POPC      H15R           33.8123067995       33.7009666722       -4.9069724368  MEMB      130             0.0000000000
     17297       136  POPC      H15S           32.8526116477       32.1975250701       -5.0888219917  MEMB      130             0.0000000000
     17298       136  POPC      C216           32.6517797506       33.2045673885       -3.0960344208  MEMB      130             0.0000000000
     17299       136  POPC      H16R           33.4188357846       32.3736243514       -3.1458532774  MEMB      130             0.0000000000
     17300       136  POPC      H16S           32.4906643711       34.2981939936       -3.3023782324  MEMB      130             0.0000000000
     17301       136  POPC      C217           33.7064309871       33.8305607880       -2.0749931132  MEMB      130             0.0000000000
     17302       136  POPC      H17R           33.6239868894       34.9368017067       -1.9734920631  MEMB      130             0.0000000000
     17303       136  POPC      H17S           34.7322005598       33.6789584481       -2.4696156825  MEMB      130             0.0000000000
     17304       136  POPC      C218           33.6176244977       33.2469895205       -0.6652701424  MEMB      130             0.0000000000
     17305       136  POPC      H18R           32.5643229902       33.2279005869       -0.3123518438  MEMB      130             0.0000000000
     17306       136  POPC      H18S           34.2066516216       33.8537096841        0.0549771716  MEMB      130             0.0000000000
     17307       136  POPC      H18T           34.0252181946       32.2176061148       -0.6475191907  MEMB      130             0.0000000000
     17308       136  POPC      C33            29.6606013064       28.6666014604      -12.3795951090  MEMB      130             0.0000000000
     17309       136  POPC      H3X            30.6179929883       29.2194288207      -12.4772487470  MEMB      130             0.0000000000
     17310       136  POPC      H3Y            29.7246716050       27.7446439378      -13.0023281915  MEMB      130             0.0000000000
     17311       136  POPC      C34            29.4609042572       28.2020620258      -10.9290496573  MEMB      130             0.0000000000
     17312       136  POPC      H4X            29.9187391439       27.1958907235      -10.7974204481  MEMB      130             0.0000000000
     17313       136  POPC      H4Y            28.3696685438       28.0946326561      -10.7662770269  MEMB      130             0.0000000000
     17314       136  POPC      C35            29.9835444653       29.1230819815       -9.8221682224  MEMB      130             0.0000000000
     17315       136  POPC      H5X            29.3890019981       28.9034845648       -8.9047701736  MEMB      130             0.0000000000
     17316       136  POPC      H5Y            29.8153993785       30.1901452358      -10.0802278373  MEMB      130             0.0000000000
     17317       136  POPC      C36            31.4520535856       28.8585220601       -9.4750276001  MEMB      130             0.0000000000
     17318       136  POPC      H6X            32.0960087386       29.3009509310      -10.2621275579  MEMB      130             0.0000000000
     17319       136  POPC      H6Y            31.6397776858       27.7599260664       -9.4838671884  MEMB      130             0.0000000000
     17320       136  POPC      C37            31.8626679212       29.3839988223       -8.0893834450  MEMB      130             0.0000000000
     17321       136  POPC      H7X            32.9726559856       29.3147951414       -8.0189678631  MEMB      130             0.0000000000
     17322       136  POPC      H7Y            31.4431758843       28.7190809255       -7.3095993614  MEMB      130             0.0000000000
     17323       136  POPC      C38            31.4385569928       30.8288394263       -7.7848400367  MEMB      130             0.0000000000
     17324       136  POPC      H8X            31.3387622314       31.4013409412       -8.7325403598  MEMB      130             0.0000000000
     17325       136  POPC      H8Y            32.2679958330       31.2974839383       -7.2061123204  MEMB      130             0.0000000000
     17326       136  POPC      C39            30.1675283032       30.9833612159       -6.9235102319  MEMB      130             0.0000000000
     17327       136  POPC      H9X            29.2884537734       30.5418588438       -7.4371328792  MEMB      130             0.0000000000
     17328       136  POPC      H9Y            29.9666693224       32.0723124915       -6.8144221147  MEMB      130             0.0000000000
     17329       136  POPC      C310           30.3141939675       30.3711812390       -5.5208068354  MEMB      130             0.0000000000
     17330       136  POPC      H10X           31.3200996324       30.6284470314       -5.1205630972  MEMB      130             0.0000000000
     17331       136  POPC      H10Y           30.2610175028       29.2635647249       -5.5897790852  MEMB      130             0.0000000000
     17332       136  POPC      C311           29.2701331876       30.8564166119       -4.5057715936  MEMB      130             0.0000000000
     17333       136  POPC      H11X           28.2461710087       30.6582250252       -4.8898552657  MEMB      130             0.0000000000
     17334       136  POPC      H11Y           29.3807533372       31.9548737588       -4.3647699160  MEMB      130             0.0000000000
     17335       136  POPC      C312           29.4544118008       30.1581128425       -3.1532289275  MEMB      130             0.0000000000
     17336       136  POPC      H12X           30.5437166003       30.1197432414       -2.9205722660  MEMB      130             0.0000000000
     17337       136  POPC      H12Y           29.0970516644       29.1085808264       -3.2328957232  MEMB      130             0.0000000000
     17338       136  POPC      C313           28.7562085210       30.8730474531       -1.9910435346  MEMB      130             0.0000000000
     17339       136  POPC      H13X           27.6757424558       31.0106805507       -2.1995950933  MEMB      130             0.0000000000
     17340       136  POPC      H13Y           29.2075224528       31.8878443321       -1.8882506999  MEMB      130             0.0000000000
     17341       136  POPC      C314           28.9297084911       30.1229319974       -0.6637041830  MEMB      130             0.0000000000
     17342       136  POPC      H14X           28.7303874846       30.8275259045        0.1696147991  MEMB      130             0.0000000000
     17343       136  POPC      H14Y           29.9824997630       29.7914704137       -0.5880059088  MEMB      130             0.0000000000
     17344       136  POPC      C315           28.0117392792       28.9082490154       -0.5040584541  MEMB      130             0.0000000000
     17345       136  POPC      H15X           28.2140225504       28.1935080280       -1.3337040249  MEMB      130             0.0000000000
     17346       136  POPC      H15Y           26.9640624480       29.2673371504       -0.5998811553  MEMB      130             0.0000000000
     17347       136  POPC      C316           28.1479541972       28.1623366672        0.8247342402  MEMB      130             0.0000000000
     17348       136  POPC      H16X           27.9166327849       28.8267830065        1.6794733283  MEMB      130             0.0000000000
     17349       136  POPC      H16Y           29.1764400680       27.7726287160        0.9566334017  MEMB      130             0.0000000000
     17350       136  POPC      H16Z           27.4458301298       27.3039094224        0.8506184999  MEMB      130             0.0000000000
     17351       137  TIP3      OH2           -20.6398151102      -23.1917688433       26.4765881005  TIP3      1               0.0000000000
     17352       137  TIP3      H1            -20.9706344773      -22.3261987975       26.7865345291  TIP3      1               0.0000000000
     17353       137  TIP3      H2            -21.3123128674      -23.4015236291       25.7850013852  TIP3      1               0.0000000000
     17354       138  TIP3      OH2           -22.1116455540      -24.5151884128       30.2689440431  TIP3      2               0.0000000000
     17355       138  TIP3      H1            -21.7610376692      -24.9338757829       31.0867695680  TIP3      2               0.0000000000
     17356       138  TIP3      H2            -22.6471895426      -25.2482683467       29.8993870503  TIP3      2               0.0000000000
     17357       139  TIP3      OH2           -29.4670068022      -24.4564935476       31.6058395982  TIP3      3               0.0000000000
     17358       139  TIP3      H1            -29.4491346737      -25.2045112249       32.2282421448  TIP3      3               0.0000000000
     17359       139  TIP3      H2            -29.0426906331      -23.7687923362       32.1569636851  TIP3      3               0.0000000000
     17360       140  TIP3      OH2           -18.3377005486      -21.0200203679       28.7788612557  TIP3      4               0.0000000000
     17361       140  TIP3      H1            -18.4940576787      -21.8886457319       29.1958727359  TIP3      4               0.0000000000
     17362       140  TIP3      H2            -18.0146081198      -20.4972377214       29.5340785354  TIP3      4               0.0000000000
     17363       141  TIP3      OH2           -28.9747271049      -19.8462188957       29.4152203327  TIP3      5               0.0000000000
     17364       141  TIP3      H1            -29.1367107112      -20.8155687702       29.4624001923  TIP3      5               0.0000000000
     17365       141  TIP3      H2            -28.0003654803      -19.8640155443       29.4195024427  TIP3      5               0.0000000000
     17366       142  TIP3      OH2           -32.3429035512      -26.0446021920       25.8501627139  TIP3      6               0.0000000000
     17367       142  TIP3      H1            -32.1784476102      -25.4732693935       26.6235429096  TIP3      6               0.0000000000
     17368       142  TIP3      H2            -32.4262725137      -25.4006344413       25.1258837203  TIP3      6               0.0000000000
     17369       143  TIP3      OH2           -31.3788306060      -24.1607822201       28.5917796843  TIP3      7               0.0000000000
     17370       143  TIP3      H1            -30.9641954812      -25.0499579529       28.5127976866  TIP3      7               0.0000000000
     17371       143  TIP3      H2            -30.6393933339      -23.5697500983       28.3662130099  TIP3      7               0.0000000000
     17372       144  TIP3      OH2           -21.6042394126      -15.9957735351       28.6205255585  TIP3      8               0.0000000000
     17373       144  TIP3      H1            -20.8821159164      -16.4595327401       28.1289738551  TIP3      8               0.0000000000
     17374       144  TIP3      H2            -21.8494282391      -16.7097584790       29.2181541924  TIP3      8               0.0000000000
     17375       145  TIP3      OH2           -23.7507659485      -22.3187815759       31.0247676693  TIP3      9               0.0000000000
     17376       145  TIP3      H1            -23.3570899676      -23.0521889339       30.5011460354  TIP3      9               0.0000000000
     17377       145  TIP3      H2            -22.9849363701      -21.7221113504       31.1172042340  TIP3      9               0.0000000000
     17378       146  TIP3      OH2           -15.2339973873      -30.3195416320       30.9403383632  TIP3      10              0.0000000000
     17379       146  TIP3      H1            -15.1823590775      -29.6121352041       31.6210157592  TIP3      10              0.0000000000
     17380       146  TIP3      H2            -14.3976269452      -30.2068803060       30.4776948039  TIP3      10              0.0000000000
     17381       147  TIP3      OH2           -20.2554225048      -27.1948865393       30.9669359932  TIP3      11              0.0000000000
     17382       147  TIP3      H1            -19.9670841372      -28.1288394591       31.0269668589  TIP3      11              0.0000000000
     17383       147  TIP3      H2            -20.5153419366      -27.0958635471       30.0262351580  TIP3      11              0.0000000000
     17384       148  TIP3      OH2           -27.9366532625      -29.4885834360       28.0642144834  TIP3      12              0.0000000000
     17385       148  TIP3      H1            -27.4921185928      -28.8124646196       27.5027239309  TIP3      12              0.0000000000
     17386       148  TIP3      H2            -27.7294680263      -30.2988449310       27.5739720646  TIP3      12              0.0000000000
     17387       149  TIP3      OH2           -20.5011464129      -29.1048762963       26.3531014672  TIP3      13              0.0000000000
     17388       149  TIP3      H1            -19.9460307519      -29.5544841324       27.0010228508  TIP3      13              0.0000000000
     17389       149  TIP3      H2            -19.8419081962      -28.4863922602       25.9669515199  TIP3      13              0.0000000000
     17390       150  TIP3      OH2           -30.6663951549      -26.7196056253       28.4999003338  TIP3      14              0.0000000000
     17391       150  TIP3      H1            -30.1733921264      -27.2906307994       29.1076655105  TIP3      14              0.0000000000
     17392       150  TIP3      H2            -30.3017089282      -26.9913027022       27.6266932768  TIP3      14              0.0000000000
     17393       151  TIP3      OH2           -25.6986330963      -25.4001920215       28.1987069883  TIP3      15              0.0000000000
     17394       151  TIP3      H1            -24.8308808538      -25.8047870211       28.4000540636  TIP3      15              0.0000000000
     17395       151  TIP3      H2            -26.1874485252      -26.1750820841       27.8515696450  TIP3      15              0.0000000000
     17396       152  TIP3      OH2           -14.9889718821      -28.8057070556       33.2020645398  TIP3      16              0.0000000000
     17397       152  TIP3      H1            -15.3848308822      -27.9328010595       33.0049537957  TIP3      16              0.0000000000
     17398       152  TIP3      H2            -15.3034660480      -28.9452586607       34.1104738880  TIP3      16              0.0000000000
     17399       153  TIP3      OH2           -28.1936784818      -30.3074423963       31.9609173746  TIP3      17              0.0000000000
     17400       153  TIP3      H1            -28.3834758923      -29.6651010931       31.2433238330  TIP3      17              0.0000000000
     17401       153  TIP3      H2            -28.9356744792      -30.1367368054       32.5656982157  TIP3      17              0.0000000000
     17402       154  TIP3      OH2           -21.5990275948      -20.6049852981       25.6939478719  TIP3      18              0.0000000000
     17403       154  TIP3      H1            -21.6450837569      -20.9323662373       24.7822510882  TIP3      18              0.0000000000
     17404       154  TIP3      H2            -20.8879907210      -19.9471861381       25.6363255180  TIP3      18              0.0000000000
     17405       155  TIP3      OH2           -26.3204302207      -22.6373479454       31.9088949407  TIP3      19              0.0000000000
     17406       155  TIP3      H1            -26.7619322898      -21.9317860216       32.4250520581  TIP3      19              0.0000000000
     17407       155  TIP3      H2            -25.4953246164      -22.1895893311       31.6091770047  TIP3      19              0.0000000000
     17408       156  TIP3      OH2           -17.6807297417      -29.2241454241       28.6677746485  TIP3      20              0.0000000000
     17409       156  TIP3      H1            -17.4860685864      -29.9262212108       29.2986282522  TIP3      20              0.0000000000
     17410       156  TIP3      H2            -17.0835018397      -28.5270665994       28.9942888693  TIP3      20              0.0000000000
     17411       157  TIP3      OH2           -29.0234872968      -28.3609056457       30.2790015851  TIP3      21              0.0000000000
     17412       157  TIP3      H1            -28.3954500708      -27.7154058344       30.6966420482  TIP3      21              0.0000000000
     17413       157  TIP3      H2            -28.5120122168      -28.6260050708       29.4731307719  TIP3      21              0.0000000000
     17414       158  TIP3      OH2           -27.4452162196      -20.3341602864       32.9417745656  TIP3      22              0.0000000000
     17415       158  TIP3      H1            -27.8006842930      -19.6989668871       32.3101427949  TIP3      22              0.0000000000
     17416       158  TIP3      H2            -28.2566418034      -20.6514853865       33.3902314431  TIP3      22              0.0000000000
     17417       159  TIP3      OH2           -31.5050125140      -21.0785261644       23.6156197255  TIP3      23              0.0000000000
     17418       159  TIP3      H1            -32.4400457393      -21.3527249238       23.7418071403  TIP3      23              0.0000000000
     17419       159  TIP3      H2            -31.2457090279      -20.7906645758       24.5041108668  TIP3      23              0.0000000000
     17420       160  TIP3      OH2           -18.0023919432      -19.3828699305       31.0108967521  TIP3      24              0.0000000000
     17421       160  TIP3      H1            -18.9644220177      -19.2569564136       31.1760339639  TIP3      24              0.0000000000
     17422       160  TIP3      H2            -17.8297885929      -18.5146846800       30.5884571327  TIP3      24              0.0000000000
     17423       161  TIP3      OH2           -17.4793011863      -30.4702363130       32.5775866876  TIP3      25              0.0000000000
     17424       161  TIP3      H1            -18.2085122023      -30.1647591737       31.9836420675  TIP3      25              0.0000000000
     17425       161  TIP3      H2            -16.7605582726      -30.6433380173       31.9361098713  TIP3      25              0.0000000000
     17426       162  TIP3      OH2           -24.4642004558      -32.4285710876       29.6466063432  TIP3      26              0.0000000000
     17427       162  TIP3      H1            -24.5739962419      -33.3882555112       29.6926871826  TIP3      26              0.0000000000
     17428       162  TIP3      H2            -25.3434459071      -32.1416726194       29.9865625615  TIP3      26              0.0000000000
     17429       163  TIP3      OH2           -19.7480890239      -17.1793464762       27.2017689265  TIP3      27              0.0000000000
     17430       163  TIP3      H1            -19.4537355658      -18.0259173984       26.8072602361  TIP3      27              0.0000000000
     17431       163  TIP3      H2            -18.9381154295      -16.6156375818       27.1036021017  TIP3      27              0.0000000000
     17432       164  TIP3      OH2           -18.9254620130      -19.5212943784       25.8892324296  TIP3      28              0.0000000000
     17433       164  TIP3      H1            -18.6443421399      -20.2054498681       25.2527696567  TIP3      28              0.0000000000
     17434       164  TIP3      H2            -18.6825142885      -19.9718962188       26.7191713572  TIP3      28              0.0000000000
     17435       165  TIP3      OH2           -16.8815704205      -21.1754522333       34.5973216998  TIP3      29              0.0000000000
     17436       165  TIP3      H1            -16.8809046845      -21.9101058182       33.9408801076  TIP3      29              0.0000000000
     17437       165  TIP3      H2            -16.7053249796      -20.4174933818       34.0009152678  TIP3      29              0.0000000000
     17438       166  TIP3      OH2           -22.1404394492      -23.7724577274       24.2848218357  TIP3      30              0.0000000000
     17439       166  TIP3      H1            -22.8456997392      -23.1526114321       23.9998671015  TIP3      30              0.0000000000
     17440       166  TIP3      H2            -21.5739398506      -23.8441254086       23.4752811652  TIP3      30              0.0000000000
     17441       167  TIP3      OH2           -15.0708084815      -24.4361360965       32.3934315129  TIP3      31              0.0000000000
     17442       167  TIP3      H1            -15.7941811874      -23.7728949298       32.4200698553  TIP3      31              0.0000000000
     17443       167  TIP3      H2            -14.4862810832      -24.0006185040       31.7323102527  TIP3      31              0.0000000000
     17444       168  TIP3      OH2           -18.8271442715      -24.7357568236       24.9765429754  TIP3      32              0.0000000000
     17445       168  TIP3      H1            -19.4022781920      -24.1364922140       25.5062851849  TIP3      32              0.0000000000
     17446       168  TIP3      H2            -18.0863668847      -24.8633929929       25.6097908744  TIP3      32              0.0000000000
     17447       169  TIP3      OH2           -18.9033554485      -25.1520808831       34.5497298642  TIP3      33              0.0000000000
     17448       169  TIP3      H1            -19.1560736333      -24.2890960045       34.9395649517  TIP3      33              0.0000000000
     17449       169  TIP3      H2            -19.4636006597      -25.1253415546       33.7514899178  TIP3      33              0.0000000000
     17450       170  TIP3      OH2           -27.3618189187      -23.4847168994       27.2266279028  TIP3      34              0.0000000000
     17451       170  TIP3      H1            -27.6203582734      -23.6577741387       26.3017474059  TIP3      34              0.0000000000
     17452       170  TIP3      H2            -26.6861253007      -24.1823800425       27.3810849054  TIP3      34              0.0000000000
     17453       171  TIP3      OH2           -26.2249694461      -19.9299560365       29.4041160030  TIP3      35              0.0000000000
     17454       171  TIP3      H1            -26.2014771435      -19.8722801896       28.4223561308  TIP3      35              0.0000000000
     17455       171  TIP3      H2            -25.6948530162      -20.7195290316       29.5884570838  TIP3      35              0.0000000000
     17456       172  TIP3      OH2           -26.8324300237      -24.8794507368       30.6009710535  TIP3      36              0.0000000000
     17457       172  TIP3      H1            -26.5524293491      -24.7999951146       29.6664042109  TIP3      36              0.0000000000
     17458       172  TIP3      H2            -26.6933343976      -23.9773977269       30.9719872529  TIP3      36              0.0000000000
     17459       173  TIP3      OH2           -20.6585852637      -18.8437311536       31.3510515961  TIP3      37              0.0000000000
     17460       173  TIP3      H1            -20.8491803554      -18.2079652860       32.0620974262  TIP3      37              0.0000000000
     17461       173  TIP3      H2            -20.9664003630      -19.6944345251       31.7210703284  TIP3      37              0.0000000000
     17462       174  TIP3      OH2           -26.2252035351      -20.1451891352       35.3998955431  TIP3      38              0.0000000000
     17463       174  TIP3      H1            -26.8758735987      -19.5455195443       35.8273755576  TIP3      38              0.0000000000
     17464       174  TIP3      H2            -26.5844403804      -20.2187558416       34.4825911426  TIP3      38              0.0000000000
     17465       175  TIP3      OH2           -20.0575744394      -24.3684718946       22.6775228140  TIP3      39              0.0000000000
     17466       175  TIP3      H1            -19.5064114436      -24.6212135811       23.4452605970  TIP3      39              0.0000000000
     17467       175  TIP3      H2            -19.4937939475      -24.5645791299       21.9206237257  TIP3      39              0.0000000000
     17468       176  TIP3      OH2           -28.7160709735      -23.7304314260       34.0822255575  TIP3      40              0.0000000000
     17469       176  TIP3      H1            -28.6093754742      -23.1683693751       34.8568572558  TIP3      40              0.0000000000
     17470       176  TIP3      H2            -29.5951159976      -24.1287192131       34.2813149718  TIP3      40              0.0000000000
     17471       177  TIP3      OH2           -22.8217466575      -17.9408033025       25.4793759720  TIP3      41              0.0000000000
     17472       177  TIP3      H1            -22.4232121780      -18.6922427827       25.9596109718  TIP3      41              0.0000000000
     17473       177  TIP3      H2            -22.9005968808      -17.2844087860       26.1811641728  TIP3      41              0.0000000000
     17474       178  TIP3      OH2           -27.8301193250      -18.1826371364       36.3070895053  TIP3      42              0.0000000000
     17475       178  TIP3      H1            -28.0378838592      -18.2404927277       35.3469421153  TIP3      42              0.0000000000
     17476       178  TIP3      H2            -28.7229141164      -18.4333422983       36.6646845939  TIP3      42              0.0000000000
     17477       179  TIP3      OH2           -16.6124247792      -32.3221435875       23.4954540575  TIP3      43              0.0000000000
     17478       179  TIP3      H1            -16.8529556295      -31.3831947109       23.5487698074  TIP3      43              0.0000000000
     17479       179  TIP3      H2            -15.6588351265      -32.3198245199       23.6915714010  TIP3      43              0.0000000000
     17480       180  TIP3      OH2           -28.0799760148      -24.5252957775       24.6968652364  TIP3      44              0.0000000000
     17481       180  TIP3      H1            -28.6274974819      -23.8255818486       24.2637052246  TIP3      44              0.0000000000
     17482       180  TIP3      H2            -28.5691616489      -25.2960020071       24.3800291329  TIP3      44              0.0000000000
     17483       181  TIP3      OH2           -31.7941781058      -22.0156874263       34.2471215953  TIP3      45              0.0000000000
     17484       181  TIP3      H1            -32.4583576744      -21.9351793678       33.5363132182  TIP3      45              0.0000000000
     17485       181  TIP3      H2            -31.6139261297      -22.9847677868       34.2503574435  TIP3      45              0.0000000000
     17486       182  TIP3      OH2           -32.4739602151      -18.9269954897       30.5605483586  TIP3      46              0.0000000000
     17487       182  TIP3      H1            -31.7761574081      -19.4556452877       30.1467715511  TIP3      46              0.0000000000
     17488       182  TIP3      H2            -31.9709481609      -18.4957091433       31.2837536024  TIP3      46              0.0000000000
     17489       183  TIP3      OH2           -14.4708283000      -18.4799498355       36.1125008614  TIP3      47              0.0000000000
     17490       183  TIP3      H1            -14.5938335111      -19.4132661571       36.3762535799  TIP3      47              0.0000000000
     17491       183  TIP3      H2            -15.3319049317      -18.1148751954       36.4401795569  TIP3      47              0.0000000000
     17492       184  TIP3      OH2           -23.8694969117      -18.7847331219       35.1799725257  TIP3      48              0.0000000000
     17493       184  TIP3      H1            -23.3188702676      -18.4456577015       35.9037585281  TIP3      48              0.0000000000
     17494       184  TIP3      H2            -24.6086578010      -19.2343728899       35.6461335340  TIP3      48              0.0000000000
     17495       185  TIP3      OH2           -22.5031403640      -14.8782873391       24.1507199551  TIP3      49              0.0000000000
     17496       185  TIP3      H1            -23.3066952638      -14.6199045208       23.6924048806  TIP3      49              0.0000000000
     17497       185  TIP3      H2            -22.4881905091      -14.1714959992       24.8244036573  TIP3      49              0.0000000000
     17498       186  TIP3      OH2           -29.4078901292      -16.4042541442       26.5785837195  TIP3      50              0.0000000000
     17499       186  TIP3      H1            -29.0585123723      -16.4565916152       27.5000714179  TIP3      50              0.0000000000
     17500       186  TIP3      H2            -29.8969857742      -17.2359244923       26.5389690899  TIP3      50              0.0000000000
     17501       187  TIP3      OH2           -20.0146357893      -15.7893528602       24.7376462706  TIP3      51              0.0000000000
     17502       187  TIP3      H1            -20.9761302757      -15.6706106908       24.5704125691  TIP3      51              0.0000000000
     17503       187  TIP3      H2            -20.0020270965      -16.5825769691       25.2972810839  TIP3      51              0.0000000000
     17504       188  TIP3      OH2           -17.3442374572      -26.9658655030       36.2061561124  TIP3      52              0.0000000000
     17505       188  TIP3      H1            -18.0510342410      -26.4502425121       35.7724404287  TIP3      52              0.0000000000
     17506       188  TIP3      H2            -17.3354462921      -27.7753219414       35.6639494160  TIP3      52              0.0000000000
     17507       189  TIP3      OH2           -29.5699421949      -20.5893238722       34.6990620055  TIP3      53              0.0000000000
     17508       189  TIP3      H1            -29.3936077355      -21.0833129903       35.5288435525  TIP3      53              0.0000000000
     17509       189  TIP3      H2            -30.4717016453      -20.9441941734       34.5167726677  TIP3      53              0.0000000000
     17510       190  TIP3      OH2           -26.9424028458      -31.9964482126       30.3934476349  TIP3      54              0.0000000000
     17511       190  TIP3      H1            -27.7066790330      -31.9620840167       29.7769264663  TIP3      54              0.0000000000
     17512       190  TIP3      H2            -27.2926714821      -31.4776146673       31.1520638817  TIP3      54              0.0000000000
     17513       191  TIP3      OH2           -22.6415776298      -31.9333163203       34.5760139127  TIP3      55              0.0000000000
     17514       191  TIP3      H1            -22.0527776248      -32.6659954736       34.3530398311  TIP3      55              0.0000000000
     17515       191  TIP3      H2            -23.4518731011      -32.1066839135       34.0706629756  TIP3      55              0.0000000000
     17516       192  TIP3      OH2           -19.6708013247      -28.2149124351       34.8408462037  TIP3      56              0.0000000000
     17517       192  TIP3      H1            -20.1514461497      -28.5190035943       35.6436370928  TIP3      56              0.0000000000
     17518       192  TIP3      H2            -20.0397305147      -27.3258915987       34.7263414012  TIP3      56              0.0000000000
     17519       193  TIP3      OH2           -27.0907902389      -27.2519503852       31.6842720183  TIP3      57              0.0000000000
     17520       193  TIP3      H1            -27.6447107523      -27.1897218019       32.4940836892  TIP3      57              0.0000000000
     17521       193  TIP3      H2            -27.1051742680      -26.3093723131       31.3704618471  TIP3      57              0.0000000000
     17522       194  TIP3      OH2           -27.1585944297      -27.1924222701       26.7809350274  TIP3      58              0.0000000000
     17523       194  TIP3      H1            -28.0661583714      -26.8930041882       26.5500181832  TIP3      58              0.0000000000
     17524       194  TIP3      H2            -26.8724095447      -27.4728642123       25.8857376971  TIP3      58              0.0000000000
     17525       195  TIP3      OH2           -22.0603669036      -26.4430696020       24.9090185933  TIP3      59              0.0000000000
     17526       195  TIP3      H1            -21.9568344665      -25.4786559746       24.7589811564  TIP3      59              0.0000000000
     17527       195  TIP3      H2            -21.4374862364      -26.8336865204       24.2593898334  TIP3      59              0.0000000000
     17528       196  TIP3      OH2           -22.9937870430      -25.8579695417       36.6232222623  TIP3      60              0.0000000000
     17529       196  TIP3      H1            -23.1627333458      -26.7949443116       36.8768410717  TIP3      60              0.0000000000
     17530       196  TIP3      H2            -22.4715871185      -25.5705191975       37.3943722426  TIP3      60              0.0000000000
     17531       197  TIP3      OH2           -20.6827528511      -26.4760442616       28.2669107075  TIP3      61              0.0000000000
     17532       197  TIP3      H1            -20.8424923102      -25.5560939491       27.9834326955  TIP3      61              0.0000000000
     17533       197  TIP3      H2            -20.6909094236      -26.9619033507       27.4240190949  TIP3      61              0.0000000000
     17534       198  TIP3      OH2           -29.4651081691      -27.3815910697       33.2809295865  TIP3      62              0.0000000000
     17535       198  TIP3      H1            -29.8912568578      -26.9558844778       34.0370113829  TIP3      62              0.0000000000
     17536       198  TIP3      H2            -29.9539021072      -28.2274636983       33.2287805272  TIP3      62              0.0000000000
     17537       199  TIP3      OH2           -26.2192018716      -30.2286712713       19.7728200229  TIP3      63              0.0000000000
     17538       199  TIP3      H1            -26.7737946134      -29.9166047663       20.5159820281  TIP3      63              0.0000000000
     17539       199  TIP3      H2            -26.3483222971      -29.5677970222       19.0731321278  TIP3      63              0.0000000000
     17540       200  TIP3      OH2           -31.6689264274      -30.0065597024       27.0791089088  TIP3      64              0.0000000000
     17541       200  TIP3      H1            -31.0427740308      -29.9622516571       27.8128362924  TIP3      64              0.0000000000
     17542       200  TIP3      H2            -32.3912346880      -30.4996616664       27.5039694797  TIP3      64              0.0000000000
     17543       201  TIP3      OH2           -21.1713038837      -25.4391865178       32.6356072546  TIP3      65              0.0000000000
     17544       201  TIP3      H1            -20.6946792372      -26.1318712433       32.1048266201  TIP3      65              0.0000000000
     17545       201  TIP3      H2            -21.8088504464      -26.0123438475       33.1311004350  TIP3      65              0.0000000000
     17546       202  TIP3      OH2           -24.3044409761      -29.3240039753       27.4307718571  TIP3      66              0.0000000000
     17547       202  TIP3      H1            -25.0534968502      -29.9431009556       27.3424671133  TIP3      66              0.0000000000
     17548       202  TIP3      H2            -23.7502081471      -29.7437289731       28.1263595317  TIP3      66              0.0000000000
     17549       203  TIP3      OH2           -29.7901072189      -27.3615545071       26.0178795100  TIP3      67              0.0000000000
     17550       203  TIP3      H1            -30.4816055213      -27.1107786489       25.3843814744  TIP3      67              0.0000000000
     17551       203  TIP3      H2            -29.5110835400      -28.2277740802       25.6756432881  TIP3      67              0.0000000000
     17552       204  TIP3      OH2           -26.5165930186      -27.7840091615       24.1437621669  TIP3      68              0.0000000000
     17553       204  TIP3      H1            -25.5342693160      -27.8985648793       24.1638243309  TIP3      68              0.0000000000
     17554       204  TIP3      H2            -26.6319446404      -26.9523218057       23.6648024784  TIP3      68              0.0000000000
     17555       205  TIP3      OH2           -19.4922811327      -29.8686869489       30.9618972258  TIP3      69              0.0000000000
     17556       205  TIP3      H1            -20.3466397555      -29.9072703115       31.4255108864  TIP3      69              0.0000000000
     17557       205  TIP3      H2            -19.7289612994      -30.0854730438       30.0443309117  TIP3      69              0.0000000000
     17558       206  TIP3      OH2           -17.4295496324      -14.5551795705       37.3899069229  TIP3      70              0.0000000000
     17559       206  TIP3      H1            -16.8916566987      -14.2758805655       36.6194554685  TIP3      70              0.0000000000
     17560       206  TIP3      H2            -16.8109029971      -14.3551905876       38.1052543707  TIP3      70              0.0000000000
     17561       207  TIP3      OH2           -29.5062860715      -22.1459030676       37.1171164126  TIP3      71              0.0000000000
     17562       207  TIP3      H1            -28.7032544827      -22.1480517448       37.6982495759  TIP3      71              0.0000000000
     17563       207  TIP3      H2            -30.1168137775      -22.6015058868       37.7145845798  TIP3      71              0.0000000000
     17564       208  TIP3      OH2           -23.5833258560      -26.7564851906       29.2759033483  TIP3      72              0.0000000000
     17565       208  TIP3      H1            -22.9168490201      -27.3149931742       28.8386831531  TIP3      72              0.0000000000
     17566       208  TIP3      H2            -24.2387610493      -27.4059367279       29.5743485963  TIP3      72              0.0000000000
     17567       209  TIP3      OH2           -28.2487857017      -30.4800646488       25.4142079994  TIP3      73              0.0000000000
     17568       209  TIP3      H1            -28.9132451811      -31.0912206942       25.7670391616  TIP3      73              0.0000000000
     17569       209  TIP3      H2            -27.4593504711      -31.0451924731       25.4058477667  TIP3      73              0.0000000000
     17570       210  TIP3      OH2           -24.8226543756      -28.5263835641       31.7806020593  TIP3      74              0.0000000000
     17571       210  TIP3      H1            -25.5921279018      -27.9088053730       31.7973928412  TIP3      74              0.0000000000
     17572       210  TIP3      H2            -24.1082184822      -27.9328073253       32.0555918041  TIP3      74              0.0000000000
     17573       211  TIP3      OH2           -24.0246252516      -21.9236610555       23.8339782259  TIP3      75              0.0000000000
     17574       211  TIP3      H1            -24.7983314873      -22.4005069462       23.4566723719  TIP3      75              0.0000000000
     17575       211  TIP3      H2            -24.3772193104      -21.6264801246       24.7081791812  TIP3      75              0.0000000000
     17576       212  TIP3      OH2           -16.8250536046      -22.4505934213       32.2788298763  TIP3      76              0.0000000000
     17577       212  TIP3      H1            -16.2867173300      -21.7818480595       31.7875906669  TIP3      76              0.0000000000
     17578       212  TIP3      H2            -17.4602958204      -22.7231235235       31.5870370246  TIP3      76              0.0000000000
     17579       213  TIP3      OH2           -23.1801839611      -21.4328979422       34.3504981949  TIP3      77              0.0000000000
     17580       213  TIP3      H1            -23.2407538402      -22.0404512768       35.1066913856  TIP3      77              0.0000000000
     17581       213  TIP3      H2            -23.4651929488      -20.5897279970       34.7444430449  TIP3      77              0.0000000000
     17582       214  TIP3      OH2           -19.9318397007      -27.3131883883       23.4454332333  TIP3      78              0.0000000000
     17583       214  TIP3      H1            -19.6797259656      -26.4843814004       23.8829618770  TIP3      78              0.0000000000
     17584       214  TIP3      H2            -19.2519054022      -27.3029144059       22.7331222583  TIP3      78              0.0000000000
     17585       215  TIP3      OH2           -28.8728115906      -22.6846576676       29.3559723382  TIP3      79              0.0000000000
     17586       215  TIP3      H1            -28.2944215095      -22.9172258617       28.5908632935  TIP3      79              0.0000000000
     17587       215  TIP3      H2            -28.8157199008      -23.4793142212       29.9202080270  TIP3      79              0.0000000000
     17588       216  TIP3      OH2           -22.0281545600      -20.5204145779       22.7708715264  TIP3      80              0.0000000000
     17589       216  TIP3      H1            -22.5415974253      -19.7065428300       22.9497171848  TIP3      80              0.0000000000
     17590       216  TIP3      H2            -22.6857773629      -21.2088067252       23.0298821053  TIP3      80              0.0000000000
     17591       217  TIP3      OH2           -31.3201592535      -24.6135039614       34.5751988062  TIP3      81              0.0000000000
     17592       217  TIP3      H1            -31.4682933542      -24.6708303359       35.5512365059  TIP3      81              0.0000000000
     17593       217  TIP3      H2            -32.1900974831      -24.9402457515       34.2501116527  TIP3      81              0.0000000000
     17594       218  TIP3      OH2           -25.4902537224      -24.6992045286       36.2668902685  TIP3      82              0.0000000000
     17595       218  TIP3      H1            -25.8556201344      -25.0626257995       35.4386282890  TIP3      82              0.0000000000
     17596       218  TIP3      H2            -24.6393036296      -25.1888760935       36.3249155488  TIP3      82              0.0000000000
     17597       219  TIP3      OH2           -20.2778858738      -19.4517418502       35.0065389168  TIP3      83              0.0000000000
     17598       219  TIP3      H1            -21.0542591601      -19.3200771796       34.4558504188  TIP3      83              0.0000000000
     17599       219  TIP3      H2            -20.5463422327      -18.9354811934       35.7943948416  TIP3      83              0.0000000000
     17600       220  TIP3      OH2           -14.4330883727      -21.2541684494       35.9188575251  TIP3      84              0.0000000000
     17601       220  TIP3      H1            -15.3388112911      -21.2076165666       35.5412949532  TIP3      84              0.0000000000
     17602       220  TIP3      H2            -13.8907647856      -21.3036441706       35.0997814972  TIP3      84              0.0000000000
     17603       221  TIP3      OH2           -16.4547214075      -18.4259452318       23.5108054989  TIP3      85              0.0000000000
     17604       221  TIP3      H1            -16.7069161205      -19.3005690806       23.8357721089  TIP3      85              0.0000000000
     17605       221  TIP3      H2            -16.4692693437      -18.5299209141       22.5420007135  TIP3      85              0.0000000000
     17606       222  TIP3      OH2           -18.7187102245      -23.4620195427       30.4118162169  TIP3      86              0.0000000000
     17607       222  TIP3      H1            -19.6172304519      -23.7266601048       30.6531279940  TIP3      86              0.0000000000
     17608       222  TIP3      H2            -18.4062939026      -24.2428638248       29.9011673242  TIP3      86              0.0000000000
     17609       223  TIP3      OH2           -26.6765698021      -19.1281800085       26.8368172066  TIP3      87              0.0000000000
     17610       223  TIP3      H1            -26.5675729792      -18.1812991704       26.6386699320  TIP3      87              0.0000000000
     17611       223  TIP3      H2            -27.3021177486      -19.4106253943       26.1521601164  TIP3      87              0.0000000000
     17612       224  TIP3      OH2           -25.1343117326      -21.3120589594       26.1950320178  TIP3      88              0.0000000000
     17613       224  TIP3      H1            -25.5247023703      -20.4209984467       26.2730088929  TIP3      88              0.0000000000
     17614       224  TIP3      H2            -25.7369863491      -21.8403188509       26.7433746385  TIP3      88              0.0000000000
     17615       225  TIP3      OH2           -25.1099886652      -17.3174898986       33.2450436959  TIP3      89              0.0000000000
     17616       225  TIP3      H1            -24.3456563679      -16.7900312260       32.9047284253  TIP3      89              0.0000000000
     17617       225  TIP3      H2            -24.6026812203      -17.9001018946       33.8639307959  TIP3      89              0.0000000000
     17618       226  TIP3      OH2           -26.7026383259      -16.5622453008       25.5090820020  TIP3      90              0.0000000000
     17619       226  TIP3      H1            -27.6055666035      -16.3512109454       25.8117974513  TIP3      90              0.0000000000
     17620       226  TIP3      H2            -26.1869376410      -15.9002269039       26.0247661279  TIP3      90              0.0000000000
     17621       227  TIP3      OH2           -21.4399500235      -21.5104744629       32.2050101552  TIP3      91              0.0000000000
     17622       227  TIP3      H1            -21.9967522130      -21.6419681143       33.0140877930  TIP3      91              0.0000000000
     17623       227  TIP3      H2            -21.2828852149      -22.4139835202       31.8902669668  TIP3      91              0.0000000000
     17624       228  TIP3      OH2           -19.4847405600      -19.7521482488       22.2286829940  TIP3      92              0.0000000000
     17625       228  TIP3      H1            -19.0304850158      -20.3582710377       22.8330598670  TIP3      92              0.0000000000
     17626       228  TIP3      H2            -20.4063725042      -20.0543415562       22.3573881841  TIP3      92              0.0000000000
     17627       229  TIP3      OH2           -18.1506163290      -17.0885711547       34.5407340774  TIP3      93              0.0000000000
     17628       229  TIP3      H1            -19.0137620558      -17.5257206461       34.4102808106  TIP3      93              0.0000000000
     17629       229  TIP3      H2            -18.1974320085      -16.3338105427       33.9093644862  TIP3      93              0.0000000000
     17630       230  TIP3      OH2           -14.3073737518      -15.2001262662       22.1094086232  TIP3      94              0.0000000000
     17631       230  TIP3      H1            -14.3100301103      -15.0351849467       21.1479478192  TIP3      94              0.0000000000
     17632       230  TIP3      H2            -15.1690994474      -14.8181317800       22.3394868923  TIP3      94              0.0000000000
     17633       231  TIP3      OH2           -30.5595739274      -29.7539682673       34.0461647945  TIP3      95              0.0000000000
     17634       231  TIP3      H1            -31.0123274698      -29.1375429511       34.6641103917  TIP3      95              0.0000000000
     17635       231  TIP3      H2            -30.2666408482      -30.4573119388       34.6439814457  TIP3      95              0.0000000000
     17636       232  TIP3      OH2           -18.1473228615      -21.6079803705       23.9951456971  TIP3      96              0.0000000000
     17637       232  TIP3      H1            -18.3259271017      -22.5573849404       24.0962800184  TIP3      96              0.0000000000
     17638       232  TIP3      H2            -17.2168639990      -21.6240125986       23.6607292012  TIP3      96              0.0000000000
     17639       233  TIP3      OH2           -30.9251265214      -18.3142409097       32.7443078677  TIP3      97              0.0000000000
     17640       233  TIP3      H1            -30.3878270108      -19.0621286175       33.0762653863  TIP3      97              0.0000000000
     17641       233  TIP3      H2            -30.5530185794      -17.5654445206       33.2253613088  TIP3      97              0.0000000000
     17642       234  TIP3      OH2           -29.8704095336      -23.1822210456       23.2360297417  TIP3      98              0.0000000000
     17643       234  TIP3      H1            -30.6272608150      -22.5582476283       23.2303496435  TIP3      98              0.0000000000
     17644       234  TIP3      H2            -30.1149506422      -23.7571454208       22.4916210108  TIP3      98              0.0000000000
     17645       235  TIP3      OH2           -21.5229217496      -29.9043370634       33.2260791815  TIP3      99              0.0000000000
     17646       235  TIP3      H1            -20.7684989194      -29.7072018749       33.8063328610  TIP3      99              0.0000000000
     17647       235  TIP3      H2            -21.9902563784      -30.5490200078       33.8057953407  TIP3      99              0.0000000000
     17648       236  TIP3      OH2           -20.7944347355      -30.2446381736       23.6406399704  TIP3      100             0.0000000000
     17649       236  TIP3      H1            -20.5325163888      -29.3237123036       23.4637346886  TIP3      100             0.0000000000
     17650       236  TIP3      H2            -20.7715545915      -30.1968507926       24.6090542420  TIP3      100             0.0000000000
     17651       237  TIP3      OH2           -23.4441016872      -17.8408053130       22.7250289278  TIP3      101             0.0000000000
     17652       237  TIP3      H1            -24.3565997233      -17.5076987683       22.8464048536  TIP3      101             0.0000000000
     17653       237  TIP3      H2            -23.1130467057      -17.7056469290       23.6412934440  TIP3      101             0.0000000000
     17654       238  TIP3      OH2           -23.9956716645      -28.3550960401       24.8173276387  TIP3      102             0.0000000000
     17655       238  TIP3      H1            -23.3900495075      -27.5831727820       24.9058300547  TIP3      102             0.0000000000
     17656       238  TIP3      H2            -24.1036613341      -28.6440320519       25.7451599995  TIP3      102             0.0000000000
     17657       239  TIP3      OH2           -22.5344805340      -27.2286461293       34.0480992788  TIP3      103             0.0000000000
     17658       239  TIP3      H1            -22.4738345310      -26.9648445361       34.9855687013  TIP3      103             0.0000000000
     17659       239  TIP3      H2            -22.4289836792      -28.1967049886       34.0567411322  TIP3      103             0.0000000000
     17660       240  TIP3      OH2           -22.6439499799      -31.7630587238       26.2084162410  TIP3      104             0.0000000000
     17661       240  TIP3      H1            -22.8682119244      -30.8308604238       26.0693498420  TIP3      104             0.0000000000
     17662       240  TIP3      H2            -21.8596161220      -31.6975705925       26.8061812961  TIP3      104             0.0000000000
     17663       241  TIP3      OH2           -25.9055876741      -16.5946571024       22.8551227090  TIP3      105             0.0000000000
     17664       241  TIP3      H1            -26.3980170618      -15.8204709266       22.5305522379  TIP3      105             0.0000000000
     17665       241  TIP3      H2            -26.2034349983      -16.6229641601       23.7892805173  TIP3      105             0.0000000000
     17666       242  TIP3      OH2           -27.1287382061      -30.1943947261       22.5316330992  TIP3      106             0.0000000000
     17667       242  TIP3      H1            -27.2840178652      -29.4847314476       23.1832437079  TIP3      106             0.0000000000
     17668       242  TIP3      H2            -26.4739955151      -30.7274254184       22.9879408273  TIP3      106             0.0000000000
     17669       243  TIP3      OH2           -17.2077555701      -29.4218172865       34.9855895608  TIP3      107             0.0000000000
     17670       243  TIP3      H1            -18.1538238360      -29.2080498651       35.1051902201  TIP3      107             0.0000000000
     17671       243  TIP3      H2            -17.2511501041      -29.7951878688       34.0702620089  TIP3      107             0.0000000000
     17672       244  TIP3      OH2           -18.0024462200      -25.7621500643       28.8987839093  TIP3      108             0.0000000000
     17673       244  TIP3      H1            -18.7259693559      -26.4026796676       28.7835645029  TIP3      108             0.0000000000
     17674       244  TIP3      H2            -17.3012128658      -26.3184625149       29.3182650994  TIP3      108             0.0000000000
     17675       245  TIP3      OH2           -17.5702910572      -16.6218206295       30.8047124639  TIP3      109             0.0000000000
     17676       245  TIP3      H1            -17.4276357127      -16.0696732928       30.0151909497  TIP3      109             0.0000000000
     17677       245  TIP3      H2            -16.6434494217      -16.7249499109       31.1094942867  TIP3      109             0.0000000000
     17678       246  TIP3      OH2           -29.5888458701      -32.2826393157       29.2717977552  TIP3      110             0.0000000000
     17679       246  TIP3      H1            -29.7076415584      -32.3044838284       28.2952800841  TIP3      110             0.0000000000
     17680       246  TIP3      H2            -29.9991884961      -33.1388854342       29.5319823030  TIP3      110             0.0000000000
     17681       247  TIP3      OH2           -30.4445380897      -18.8288680443       25.0352703591  TIP3      111             0.0000000000
     17682       247  TIP3      H1            -31.3059444406      -18.4805934967       25.3021543591  TIP3      111             0.0000000000
     17683       247  TIP3      H2            -30.0458501816      -18.0905667570       24.5596075444  TIP3      111             0.0000000000
     17684       248  TIP3      OH2           -31.1716209771      -15.8676314794       37.2793968416  TIP3      112             0.0000000000
     17685       248  TIP3      H1            -30.6209714827      -15.9598460360       38.0826909595  TIP3      112             0.0000000000
     17686       248  TIP3      H2            -31.9272198084      -16.4208365939       37.4960583940  TIP3      112             0.0000000000
     17687       249  TIP3      OH2           -26.9652192445      -16.9416997004       38.6878606433  TIP3      113             0.0000000000
     17688       249  TIP3      H1            -26.1549548354      -17.3696257350       39.0307374724  TIP3      113             0.0000000000
     17689       249  TIP3      H2            -27.0929663029      -17.4818500691       37.8860259849  TIP3      113             0.0000000000
     17690       250  TIP3      OH2           -20.7858456238      -18.1527289307       37.3103534095  TIP3      114             0.0000000000
     17691       250  TIP3      H1            -21.0613115784      -19.0654275010       37.5809881929  TIP3      114             0.0000000000
     17692       250  TIP3      H2            -19.8529810926      -18.1060747827       37.6182362666  TIP3      114             0.0000000000
     17693       251  TIP3      OH2           -32.4572696942      -21.7122525998       37.7688747923  TIP3      115             0.0000000000
     17694       251  TIP3      H1            -32.2369891894      -22.4381308521       37.1693799898  TIP3      115             0.0000000000
     17695       251  TIP3      H2            -33.4318546612      -21.7896995810       37.7343443226  TIP3      115             0.0000000000
     17696       252  TIP3      OH2           -25.0105726995      -22.1681681692       36.9054856683  TIP3      116             0.0000000000
     17697       252  TIP3      H1            -25.3976427010      -21.5335311168       36.2678073265  TIP3      116             0.0000000000
     17698       252  TIP3      H2            -25.2105538323      -23.0548183991       36.5266365787  TIP3      116             0.0000000000
     17699       253  TIP3      OH2           -19.2970654745      -22.2826795375       35.0750737855  TIP3      117             0.0000000000
     17700       253  TIP3      H1            -18.4292712211      -21.8164662620       35.0508062137  TIP3      117             0.0000000000
     17701       253  TIP3      H2            -19.8845313464      -21.4983883073       35.0659164156  TIP3      117             0.0000000000
     17702       254  TIP3      OH2           -31.3726876994      -24.8305206392       37.3092938941  TIP3      118             0.0000000000
     17703       254  TIP3      H1            -30.6485275544      -25.4899935463       37.2332028158  TIP3      118             0.0000000000
     17704       254  TIP3      H2            -31.0684917258      -24.4021480840       38.1285723456  TIP3      118             0.0000000000
     17705       255  TIP3      OH2           -25.9557930888      -23.1895577935       22.4770487082  TIP3      119             0.0000000000
     17706       255  TIP3      H1            -26.4920188571      -23.9489899081       22.7425744891  TIP3      119             0.0000000000
     17707       255  TIP3      H2            -25.6225829013      -23.4671864419       21.5959525952  TIP3      119             0.0000000000
     17708       256  TIP3      OH2           -26.9598665882      -25.8949339128       34.1473116111  TIP3      120             0.0000000000
     17709       256  TIP3      H1            -27.5964048903      -25.1526200766       34.0864187217  TIP3      120             0.0000000000
     17710       256  TIP3      H2            -26.2235817530      -25.5212585373       33.6066130519  TIP3      120             0.0000000000
     17711       257  TIP3      OH2           -21.4059069531      -22.9766380712       38.1010895581  TIP3      121             0.0000000000
     17712       257  TIP3      H1            -20.8774242387      -23.5453636962       37.5154533165  TIP3      121             0.0000000000
     17713       257  TIP3      H2            -21.8395912682      -23.6264348000       38.6787901158  TIP3      121             0.0000000000
     17714       258  TIP3      OH2           -26.5423051329      -28.0209167722       35.7315372769  TIP3      122             0.0000000000
     17715       258  TIP3      H1            -26.5568129161      -28.7596429356       35.0798238509  TIP3      122             0.0000000000
     17716       258  TIP3      H2            -26.8260338223      -27.2718701345       35.1601840573  TIP3      122             0.0000000000
     17717       259  TIP3      OH2           -26.2233973452      -29.8682484411       33.6747646442  TIP3      123             0.0000000000
     17718       259  TIP3      H1            -25.5262300298      -29.4705581225       33.0985553015  TIP3      123             0.0000000000
     17719       259  TIP3      H2            -26.9551664052      -29.8662493443       33.0285471053  TIP3      123             0.0000000000
     17720       260  TIP3      OH2           -24.7340439156      -24.4282461940       33.3340668153  TIP3      124             0.0000000000
     17721       260  TIP3      H1            -23.8053286486      -24.4986829863       33.0827556767  TIP3      124             0.0000000000
     17722       260  TIP3      H2            -25.0547646709      -23.6676672431       32.8084313759  TIP3      124             0.0000000000
     17723       261  TIP3      OH2           -19.9541889689      -27.1959646182       38.4539611842  TIP3      125             0.0000000000
     17724       261  TIP3      H1            -19.7950921227      -28.1462124354       38.5491749810  TIP3      125             0.0000000000
     17725       261  TIP3      H2            -19.0702593956      -26.8393725527       38.5993248048  TIP3      125             0.0000000000
     17726       262  TIP3      OH2           -18.4646126716      -23.6894712097       37.2853054811  TIP3      126             0.0000000000
     17727       262  TIP3      H1            -18.8405054179      -23.0830542274       36.6204646640  TIP3      126             0.0000000000
     17728       262  TIP3      H2            -17.6250812895      -23.9428715886       36.8520359236  TIP3      126             0.0000000000
     17729       263  TIP3      OH2           -28.9693239119      -26.5492930270       37.2037420071  TIP3      127             0.0000000000
     17730       263  TIP3      H1            -29.0107546372      -27.2397055515       37.9000707025  TIP3      127             0.0000000000
     17731       263  TIP3      H2            -28.1867468336      -26.8277854747       36.6997247114  TIP3      127             0.0000000000
     17732       264  TIP3      OH2           -25.4656672022      -32.4465399819       33.6278816942  TIP3      128             0.0000000000
     17733       264  TIP3      H1            -25.7707064126      -31.5050359206       33.5594371954  TIP3      128             0.0000000000
     17734       264  TIP3      H2            -26.3112030313      -32.9370806251       33.6824497861  TIP3      128             0.0000000000
     17735       265  TIP3      OH2           -24.2470071287      -28.1894530999       37.2369701008  TIP3      129             0.0000000000
     17736       265  TIP3      H1            -24.5089617450      -28.8182085020       37.9350846863  TIP3      129             0.0000000000
     17737       265  TIP3      H2            -25.0706858794      -28.1650939045       36.7013778122  TIP3      129             0.0000000000
     17738       266  TIP3      OH2           -21.5296140324      -28.9160894524       36.5883077862  TIP3      130             0.0000000000
     17739       266  TIP3      H1            -22.4548191555      -28.9114141203       36.8845073078  TIP3      130             0.0000000000
     17740       266  TIP3      H2            -21.1341339798      -29.6318755178       37.1289584874  TIP3      130             0.0000000000
     17741       267  TIP3      OH2           -19.8789185982      -30.7582373409       37.9671135856  TIP3      131             0.0000000000
     17742       267  TIP3      H1            -20.2707968644      -31.6622786195       37.9968366293  TIP3      131             0.0000000000
     17743       267  TIP3      H2            -19.9438718018      -30.5146962377       38.9106673674  TIP3      131             0.0000000000
     17744       268  TIP3      OH2           -30.7186191053      -29.3030602168       37.3488930739  TIP3      132             0.0000000000
     17745       268  TIP3      H1            -30.3611295766      -30.1925490848       37.1852273827  TIP3      132             0.0000000000
     17746       268  TIP3      H2            -30.3006304748      -29.1035711531       38.2135442346  TIP3      132             0.0000000000
     17747       269  TIP3      OH2           -25.3901096268      -32.4328119514       36.2934827151  TIP3      133             0.0000000000
     17748       269  TIP3      H1            -24.8004861168      -33.2235528344       36.3238639617  TIP3      133             0.0000000000
     17749       269  TIP3      H2            -25.2842817871      -32.1960030011       35.3481482413  TIP3      133             0.0000000000
     17750       270  TIP3      OH2           -24.3170514450      -32.2154502515       38.8563483441  TIP3      134             0.0000000000
     17751       270  TIP3      H1            -24.6138746151      -32.2850071818       37.9291039642  TIP3      134             0.0000000000
     17752       270  TIP3      H2            -24.7951310343      -31.4137505914       39.1170041287  TIP3      134             0.0000000000
     17753       271  TIP3      OH2            33.0121662769      -14.9340363052       26.1585041704  TIP3      135             0.0000000000
     17754       271  TIP3      H1             32.3777190435      -15.6156049837       25.8807473222  TIP3      135             0.0000000000
     17755       271  TIP3      H2             33.5553465653      -15.4370201912       26.8123390251  TIP3      135             0.0000000000
     17756       272  TIP3      OH2           -32.0465456767      -16.5293187405       27.9847601977  TIP3      136             0.0000000000
     17757       272  TIP3      H1            -32.5130591532      -17.1929847628       28.5195873714  TIP3      136             0.0000000000
     17758       272  TIP3      H2            -31.4480256571      -16.1460530853       28.6604639486  TIP3      136             0.0000000000
     17759       273  TIP3      OH2           -14.8714277744      -16.4463718359       30.9910392922  TIP3      137             0.0000000000
     17760       273  TIP3      H1            -14.5504654420      -16.0218090703       31.8001096150  TIP3      137             0.0000000000
     17761       273  TIP3      H2            -14.1503973335      -16.2259966712       30.3869943243  TIP3      137             0.0000000000
     17762       274  TIP3      OH2           -14.7610227374      -16.5961408790       34.0244670530  TIP3      138             0.0000000000
     17763       274  TIP3      H1            -15.2762044223      -17.2547538358       33.5047785359  TIP3      138             0.0000000000
     17764       274  TIP3      H2            -14.4968158738      -17.1784870191       34.7680372363  TIP3      138             0.0000000000
     17765       275  TIP3      OH2           -16.2248319639      -20.7009811897       38.9631220674  TIP3      139             0.0000000000
     17766       275  TIP3      H1            -17.0927391191      -20.6036786757       39.4095015511  TIP3      139             0.0000000000
     17767       275  TIP3      H2            -15.8201346399      -19.8256055791       39.1713248538  TIP3      139             0.0000000000
     17768       276  TIP3      OH2           -15.4058612100      -21.7345121178       23.7199824042  TIP3      140             0.0000000000
     17769       276  TIP3      H1            -14.5195070487      -21.3267375539       23.7765183334  TIP3      140             0.0000000000
     17770       276  TIP3      H2            -15.2992018092      -22.4746420559       24.3504775300  TIP3      140             0.0000000000
     17771       277  TIP3      OH2           -14.7266765371      -23.6342951502       25.9360990017  TIP3      141             0.0000000000
     17772       277  TIP3      H1            -15.5928933510      -24.0881377918       26.0378291959  TIP3      141             0.0000000000
     17773       277  TIP3      H2            -14.3360536730      -23.8754706664       26.7968347235  TIP3      141             0.0000000000
     17774       278  TIP3      OH2           -14.9653682531      -21.2022122496       30.8283811117  TIP3      142             0.0000000000
     17775       278  TIP3      H1            -14.3697068387      -21.9277117201       30.5481058333  TIP3      142             0.0000000000
     17776       278  TIP3      H2            -14.4811654233      -20.4091245889       30.5300256410  TIP3      142             0.0000000000
     17777       279  TIP3      OH2           -16.3706587657      -18.6633826642       33.1471524939  TIP3      143             0.0000000000
     17778       279  TIP3      H1            -17.1180255110      -18.1780984436       33.5553551108  TIP3      143             0.0000000000
     17779       279  TIP3      H2            -16.7938388827      -18.9915288132       32.3233002876  TIP3      143             0.0000000000
     17780       280  TIP3      OH2           -14.9156492861      -24.1952218426       22.4180905874  TIP3      144             0.0000000000
     17781       280  TIP3      H1            -15.3975280272      -24.8281404119       21.8684903766  TIP3      144             0.0000000000
     17782       280  TIP3      H2            -15.0611641527      -23.3349799866       22.0094251178  TIP3      144             0.0000000000
     17783       281  TIP3      OH2           -16.7966772152      -25.0750635419       26.6829694045  TIP3      145             0.0000000000
     17784       281  TIP3      H1            -16.9597626431      -26.0272294281       26.5862011073  TIP3      145             0.0000000000
     17785       281  TIP3      H2            -17.0734653006      -24.9638856731       27.6200855372  TIP3      145             0.0000000000
     17786       282  TIP3      OH2           -32.0895028126      -23.9771204730       31.1408830177  TIP3      146             0.0000000000
     17787       282  TIP3      H1            -32.1599592638      -24.0120378627       30.1558744536  TIP3      146             0.0000000000
     17788       282  TIP3      H2            -31.1570607283      -24.2677968810       31.2398719303  TIP3      146             0.0000000000
     17789       283  TIP3      OH2           -15.7881685625      -23.7542055928       36.3714910215  TIP3      147             0.0000000000
     17790       283  TIP3      H1            -15.3936214531      -24.6670417699       36.4129655773  TIP3      147             0.0000000000
     17791       283  TIP3      H2            -15.0234077239      -23.1699930903       36.2039694996  TIP3      147             0.0000000000
     17792       284  TIP3      OH2           -14.8855713287      -26.1989722138       36.5536733616  TIP3      148             0.0000000000
     17793       284  TIP3      H1            -15.8164246580      -26.5306408534       36.5259395112  TIP3      148             0.0000000000
     17794       284  TIP3      H2            -14.3581947323      -27.0283323273       36.6322822011  TIP3      148             0.0000000000
     17795       285  TIP3      OH2           -18.0475660016      -27.9482161121       25.6448308552  TIP3      149             0.0000000000
     17796       285  TIP3      H1            -17.8450301179      -28.9212107495       25.6027348425  TIP3      149             0.0000000000
     17797       285  TIP3      H2            -17.7545307739      -27.6594482776       24.7700445207  TIP3      149             0.0000000000
     17798       286  TIP3      OH2           -16.2161461671      -27.2420763818       30.1178227042  TIP3      150             0.0000000000
     17799       286  TIP3      H1            -15.2485986791      -27.0919183307       30.1995744053  TIP3      150             0.0000000000
     17800       286  TIP3      H2            -16.4240805988      -27.2461832821       31.0772702250  TIP3      150             0.0000000000
     17801       287  TIP3      OH2           -16.6984224393      -26.6201418511       32.7089435781  TIP3      151             0.0000000000
     17802       287  TIP3      H1            -17.4874681798      -26.3479972650       33.2137821368  TIP3      151             0.0000000000
     17803       287  TIP3      H2            -16.1607035618      -25.7949993414       32.6838162911  TIP3      151             0.0000000000
     17804       288  TIP3      OH2           -32.2137796877      -27.8813783010       35.6965276114  TIP3      152             0.0000000000
     17805       288  TIP3      H1            -31.6219634439      -28.2012103641       36.4239496528  TIP3      152             0.0000000000
     17806       288  TIP3      H2            -33.0211986192      -28.3162274003       36.0128250032  TIP3      152             0.0000000000
     17807       289  TIP3      OH2           -14.1506007666      -32.3423454803       38.7912681330  TIP3      153             0.0000000000
     17808       289  TIP3      H1            -14.6866304717      -32.9821533807       38.2884081713  TIP3      153             0.0000000000
     17809       289  TIP3      H2            -14.1022576244      -31.6082765719       38.1416407523  TIP3      153             0.0000000000
     17810       290  TIP3      OH2           -17.5155810117      -30.5816346757       25.3168565530  TIP3      154             0.0000000000
     17811       290  TIP3      H1            -16.7644895490      -30.6827392984       25.9456296462  TIP3      154             0.0000000000
     17812       290  TIP3      H2            -17.6770362573      -31.5135617590       25.0851810867  TIP3      154             0.0000000000
     17813       291  TIP3      OH2           -31.1791306371      -29.9776461475       30.2285160411  TIP3      155             0.0000000000
     17814       291  TIP3      H1            -30.6871007449      -30.8152911307       30.1567256027  TIP3      155             0.0000000000
     17815       291  TIP3      H2            -30.4371197089      -29.3498784802       30.3776393063  TIP3      155             0.0000000000
     17816       292  TIP3      OH2           -32.2700574772      -27.2355314299       31.5408248278  TIP3      156             0.0000000000
     17817       292  TIP3      H1            -32.0645845832      -28.0678054563       31.0851846454  TIP3      156             0.0000000000
     17818       292  TIP3      H2            -32.1590410722      -26.6000721333       30.8179808344  TIP3      156             0.0000000000
     17819       293  TIP3      OH2           -14.9929594116      -30.2317459891       36.8860414198  TIP3      157             0.0000000000
     17820       293  TIP3      H1            -15.8250067031      -29.9067313585       37.2902459804  TIP3      157             0.0000000000
     17821       293  TIP3      H2            -15.3155044094      -30.6603876214       36.0814334136  TIP3      157             0.0000000000
     17822       294  TIP3      OH2           -32.4739912815      -31.4846134285       24.9950958188  TIP3      158             0.0000000000
     17823       294  TIP3      H1            -33.4394737067      -31.4747569211       25.1616744785  TIP3      158             0.0000000000
     17824       294  TIP3      H2            -32.1980971290      -30.7347181560       25.5654222548  TIP3      158             0.0000000000
     17825       295  TIP3      OH2           -17.8468189564      -15.3238482732       26.9586786822  TIP3      159             0.0000000000
     17826       295  TIP3      H1            -17.2058452298      -15.5460975852       26.2488373046  TIP3      159             0.0000000000
     17827       295  TIP3      H2            -17.2995904466      -14.8463980662       27.6018040985  TIP3      159             0.0000000000
     17828       296  TIP3      OH2           -33.2137165388      -32.0292564895       32.5125365355  TIP3      160             0.0000000000
     17829       296  TIP3      H1            -32.7374784473      -31.5289520466       33.1939010778  TIP3      160             0.0000000000
     17830       296  TIP3      H2            -33.3569993040      -31.3305744523       31.8513767639  TIP3      160             0.0000000000
     17831       297  TIP3      OH2           -30.1892418272      -19.1549374468       37.2008853332  TIP3      161             0.0000000000
     17832       297  TIP3      H1            -31.1261954424      -18.9372677898       37.1422069319  TIP3      161             0.0000000000
     17833       297  TIP3      H2            -30.2340160091      -20.1271460998       37.2031800016  TIP3      161             0.0000000000
     17834       298  TIP3      OH2           -27.7150654029      -17.5655117844       33.6629960227  TIP3      162             0.0000000000
     17835       298  TIP3      H1            -27.9435658224      -16.8333736846       33.0454283043  TIP3      162             0.0000000000
     17836       298  TIP3      H2            -26.7737795119      -17.7365179980       33.4140936913  TIP3      162             0.0000000000
     17837       299  TIP3      OH2           -23.7785116608      -16.3154882547       36.4188891845  TIP3      163             0.0000000000
     17838       299  TIP3      H1            -23.5038946052      -16.6726443980       37.2948335353  TIP3      163             0.0000000000
     17839       299  TIP3      H2            -22.8893184240      -16.0765015977       36.0751748904  TIP3      163             0.0000000000
     17840       300  TIP3      OH2           -21.3937424169      -14.8402987308       35.7579611351  TIP3      164             0.0000000000
     17841       300  TIP3      H1            -20.6732674546      -15.4399615931       35.5121176289  TIP3      164             0.0000000000
     17842       300  TIP3      H2            -21.0624488895      -14.4800931363       36.6098633523  TIP3      164             0.0000000000
     17843       301  TIP3      OH2           -15.8303829542      -32.6897286753       34.8889751146  TIP3      165             0.0000000000
     17844       301  TIP3      H1            -16.5507412232      -32.1141154829       34.5831405926  TIP3      165             0.0000000000
     17845       301  TIP3      H2            -15.3027389961      -32.7052463477       34.0560043496  TIP3      165             0.0000000000
     17846       302  TIP3      OH2           -30.3798048829      -14.4577296643       33.4715890299  TIP3      166             0.0000000000
     17847       302  TIP3      H1            -31.2139232878      -14.0816032189       33.0957328813  TIP3      166             0.0000000000
     17848       302  TIP3      H2            -30.4264497832      -14.0782531259       34.3619459969  TIP3      166             0.0000000000
     17849       303  TIP3      OH2           -28.0514859116      -15.2803926995       32.3362926737  TIP3      167             0.0000000000
     17850       303  TIP3      H1            -28.9067575132      -14.8836982150       32.6250560673  TIP3      167             0.0000000000
     17851       303  TIP3      H2            -27.8588175727      -14.7569398525       31.5414490113  TIP3      167             0.0000000000
     17852       304  TIP3      OH2           -23.2070083782      -15.7554143718       32.2360246383  TIP3      168             0.0000000000
     17853       304  TIP3      H1            -23.5652752513      -15.4151727670       31.3985657808  TIP3      168             0.0000000000
     17854       304  TIP3      H2            -22.9019651403      -14.9164584685       32.6417609677  TIP3      168             0.0000000000
     17855       305  TIP3      OH2           -20.6994215094      -16.7998403215       33.0898946249  TIP3      169             0.0000000000
     17856       305  TIP3      H1            -21.4274070431      -16.4508161446       32.5383290521  TIP3      169             0.0000000000
     17857       305  TIP3      H2            -20.0412083357      -16.0889349156       32.9708995011  TIP3      169             0.0000000000
     17858       306  TIP3      OH2           -18.4910402848      -14.9833511249       32.8451922435  TIP3      170             0.0000000000
     17859       306  TIP3      H1            -18.2819094155      -14.0419046457       32.7821351355  TIP3      170             0.0000000000
     17860       306  TIP3      H2            -18.1829207217      -15.3047500313       31.9721558403  TIP3      170             0.0000000000
     17861       307  TIP3      OH2           -30.5160491168      -15.7972854186       30.0674787684  TIP3      171             0.0000000000
     17862       307  TIP3      H1            -30.8658937337      -16.2447989580       30.8525123119  TIP3      171             0.0000000000
     17863       307  TIP3      H2            -29.6858485901      -16.2937121936       29.8789494566  TIP3      171             0.0000000000
     17864       308  TIP3      OH2           -28.3328042911      -17.0270013008       28.9254861238  TIP3      172             0.0000000000
     17865       308  TIP3      H1            -28.5110992953      -17.9821761288       29.0464816345  TIP3      172             0.0000000000
     17866       308  TIP3      H2            -27.5506924080      -16.9404532522       29.5097936192  TIP3      172             0.0000000000
     17867       309  TIP3      OH2           -26.0844984022      -17.1979840326       30.4582779214  TIP3      173             0.0000000000
     17868       309  TIP3      H1            -25.9306596005      -18.0940653860       30.0887278171  TIP3      173             0.0000000000
     17869       309  TIP3      H2            -25.7673936953      -17.2900960187       31.3742406481  TIP3      173             0.0000000000
     17870       310  TIP3      OH2           -22.5453696652      -30.4308382646       29.3643203523  TIP3      174             0.0000000000
     17871       310  TIP3      H1            -23.1994557999      -30.9746293715       29.8552674286  TIP3      174             0.0000000000
     17872       310  TIP3      H2            -21.9654734738      -31.1270265707       29.0091969519  TIP3      174             0.0000000000
     17873       311  TIP3      OH2           -16.7372504900      -32.9800895561       28.9643747063  TIP3      175             0.0000000000
     17874       311  TIP3      H1            -16.5988580116      -32.2766818954       28.3019618466  TIP3      175             0.0000000000
     17875       311  TIP3      H2            -17.6226141477      -33.3323970158       28.7933057876  TIP3      175             0.0000000000
     17876       312  TIP3      OH2           -15.4919916643      -31.3007539691       26.9763823941  TIP3      176             0.0000000000
     17877       312  TIP3      H1            -15.1983340664      -32.1892464153       26.6717201882  TIP3      176             0.0000000000
     17878       312  TIP3      H2            -14.6298628226      -30.8813894616       27.2212151273  TIP3      176             0.0000000000
     17879       313  TIP3      OH2           -29.8893927798      -32.4869098768       26.6247697970  TIP3      177             0.0000000000
     17880       313  TIP3      H1            -30.7319390253      -32.3968553747       26.1404089538  TIP3      177             0.0000000000
     17881       313  TIP3      H2            -29.3065950544      -32.9555854916       25.9832248819  TIP3      177             0.0000000000
     17882       314  TIP3      OH2           -30.5242926213      -32.2135496732       23.1359298706  TIP3      178             0.0000000000
     17883       314  TIP3      H1            -30.6114729426      -31.3764134220       22.6644357052  TIP3      178             0.0000000000
     17884       314  TIP3      H2            -31.2685544656      -32.1803844889       23.7727013029  TIP3      178             0.0000000000
     17885       315  TIP3      OH2           -25.7408368101      -31.6786629087       26.7186759406  TIP3      179             0.0000000000
     17886       315  TIP3      H1            -25.1938931781      -32.1835684996       26.1058077014  TIP3      179             0.0000000000
     17887       315  TIP3      H2            -25.4103867181      -32.0246397029       27.5681122129  TIP3      179             0.0000000000
     17888       316  TIP3      OH2           -20.5197496120      -32.2299931279       27.7145866229  TIP3      180             0.0000000000
     17889       316  TIP3      H1            -19.9219886317      -32.7598447258       27.1538052902  TIP3      180             0.0000000000
     17890       316  TIP3      H2            -20.7659064867      -32.8806192307       28.4156656627  TIP3      180             0.0000000000
     17891       317  TIP3      OH2           -19.6604966925      -32.8819237421       23.5431980253  TIP3      181             0.0000000000
     17892       317  TIP3      H1            -19.8911239347      -31.9447452566       23.4135548966  TIP3      181             0.0000000000
     17893       317  TIP3      H2            -19.4871089103      -32.9323121861       24.5093541643  TIP3      181             0.0000000000
     17894       318  TIP3      OH2           -16.2314615790      -16.0161063608       24.9795335812  TIP3      182             0.0000000000
     17895       318  TIP3      H1            -16.2224896326      -16.8841283733       24.5084975165  TIP3      182             0.0000000000
     17896       318  TIP3      H2            -16.4429431901      -15.4231035286       24.2235719060  TIP3      182             0.0000000000
     17897       319  TIP3      OH2           -29.7300137104      -32.0041711558       36.2765645629  TIP3      183             0.0000000000
     17898       319  TIP3      H1            -30.3468328911      -32.7551462556       36.2885290630  TIP3      183             0.0000000000
     17899       319  TIP3      H2            -29.1179803677      -32.2380551070       36.9968354405  TIP3      183             0.0000000000
     17900       320  TIP3      OH2           -27.4195546869       32.9521192945       37.9170563135  TIP3      184             0.0000000000
     17901       320  TIP3      H1            -26.5930654067       33.3907506707       37.6271883922  TIP3      184             0.0000000000
     17902       320  TIP3      H2            -27.1667580018       32.0180481190       37.9047969876  TIP3      184             0.0000000000
     17903       321  TIP3      OH2           -21.0238290634       33.1715592036       38.2561584390  TIP3      185             0.0000000000
     17904       321  TIP3      H1            -21.4601224765       32.9464189360       39.0912977759  TIP3      185             0.0000000000
     17905       321  TIP3      H2            -20.6057960688       32.3284473633       38.0171143638  TIP3      185             0.0000000000
     17906       322  TIP3      OH2           -16.6497928845      -17.1583354864       36.7099431778  TIP3      186             0.0000000000
     17907       322  TIP3      H1            -17.1567425584      -17.2618586238       35.8707870253  TIP3      186             0.0000000000
     17908       322  TIP3      H2            -16.9340305846      -16.2649251300       36.9763624177  TIP3      186             0.0000000000
     17909       323  TIP3      OH2            -1.9180782343      -23.0561414026       26.7550739692  TIP3      187             0.0000000000
     17910       323  TIP3      H1             -1.8101345292      -22.0997375898       26.9063249737  TIP3      187             0.0000000000
     17911       323  TIP3      H2             -2.6838621660      -23.0583068127       26.1648316588  TIP3      187             0.0000000000
     17912       324  TIP3      OH2            -3.0829249110      -24.5700707909       29.8978616360  TIP3      188             0.0000000000
     17913       324  TIP3      H1             -3.2184915999      -24.8954211150       30.8057688996  TIP3      188             0.0000000000
     17914       324  TIP3      H2             -3.9240324544      -24.7348607042       29.4439964888  TIP3      188             0.0000000000
     17915       325  TIP3      OH2           -11.0279907492      -24.6084446612       31.5619251443  TIP3      189             0.0000000000
     17916       325  TIP3      H1            -11.3542371474      -25.3015270976       32.1556282110  TIP3      189             0.0000000000
     17917       325  TIP3      H2            -10.4320289091      -24.0956476045       32.1416035704  TIP3      189             0.0000000000
     17918       326  TIP3      OH2             0.0275060777      -21.0070944371       28.8321162740  TIP3      190             0.0000000000
     17919       326  TIP3      H1             -0.2505442979      -21.6369163794       29.5129356558  TIP3      190             0.0000000000
     17920       326  TIP3      H2              0.2922194751      -20.2420744415       29.3621351319  TIP3      190             0.0000000000
     17921       327  TIP3      OH2            -9.7819623039      -19.7125789724       29.7428220682  TIP3      191             0.0000000000
     17922       327  TIP3      H1            -10.0647326768      -20.6305758566       29.5414206697  TIP3      191             0.0000000000
     17923       327  TIP3      H2             -8.8073501313      -19.8588896108       29.7336569462  TIP3      191             0.0000000000
     17924       328  TIP3      OH2           -13.0150223189      -26.2051654808       25.4692830662  TIP3      192             0.0000000000
     17925       328  TIP3      H1            -13.3190814775      -25.5299425784       24.8395308517  TIP3      192             0.0000000000
     17926       328  TIP3      H2            -13.8521999671      -26.6247669242       25.7184140082  TIP3      192             0.0000000000
     17927       329  TIP3      OH2           -13.3065040251      -24.3150250216       28.1959727423  TIP3      193             0.0000000000
     17928       329  TIP3      H1            -12.8762076877      -25.2058484230       28.1970587999  TIP3      193             0.0000000000
     17929       329  TIP3      H2            -12.7035997892      -23.8410117360       27.6012188259  TIP3      193             0.0000000000
     17930       330  TIP3      OH2            -2.5927113027      -15.6122686613       28.6551287530  TIP3      194             0.0000000000
     17931       330  TIP3      H1             -1.8994161956      -16.2750401573       28.4443167820  TIP3      194             0.0000000000
     17932       330  TIP3      H2             -3.1497155634      -16.1289674825       29.2448041480  TIP3      194             0.0000000000
     17933       331  TIP3      OH2            -5.2044463159      -21.0401889803       31.3518648660  TIP3      195             0.0000000000
     17934       331  TIP3      H1             -4.7516082277      -21.3665745031       30.5567616119  TIP3      195             0.0000000000
     17935       331  TIP3      H2             -4.4287121644      -20.7811488846       31.8912282817  TIP3      195             0.0000000000
     17936       332  TIP3      OH2             3.4594098539      -30.3545148075       30.7209139120  TIP3      196             0.0000000000
     17937       332  TIP3      H1              3.7270967868      -29.8567227314       31.5195652116  TIP3      196             0.0000000000
     17938       332  TIP3      H2              4.2189596056      -30.1654376295       30.1408250945  TIP3      196             0.0000000000
     17939       333  TIP3      OH2            -1.4161295388      -27.0768239798       31.1882311066  TIP3      197             0.0000000000
     17940       333  TIP3      H1             -1.1397503621      -27.9376394795       31.5419703448  TIP3      197             0.0000000000
     17941       333  TIP3      H2             -1.4538450308      -27.2723394139       30.2378989134  TIP3      197             0.0000000000
     17942       334  TIP3      OH2            -8.1962465012      -29.2753629682       27.8176399713  TIP3      198             0.0000000000
     17943       334  TIP3      H1             -8.2112584766      -28.4420159181       27.3094492060  TIP3      198             0.0000000000
     17944       334  TIP3      H2             -8.7165385467      -29.8650834033       27.2271895674  TIP3      198             0.0000000000
     17945       335  TIP3      OH2            -0.9475109208      -28.9579896865       26.8954119937  TIP3      199             0.0000000000
     17946       335  TIP3      H1             -0.3601772218      -29.2143567319       27.6341686536  TIP3      199             0.0000000000
     17947       335  TIP3      H2             -0.4946352935      -28.1764617925       26.5209454374  TIP3      199             0.0000000000
     17948       336  TIP3      OH2           -12.0763907833      -26.6126097158       28.5146363484  TIP3      200             0.0000000000
     17949       336  TIP3      H1            -11.4301747071      -26.8653356280       29.1907311986  TIP3      200             0.0000000000
     17950       336  TIP3      H2            -11.6265958045      -26.9372901482       27.7005836473  TIP3      200             0.0000000000
     17951       337  TIP3      OH2            -7.4883065765      -25.0772734898       28.2245145944  TIP3      201             0.0000000000
     17952       337  TIP3      H1             -6.6038027245      -25.4311758069       28.4583212992  TIP3      201             0.0000000000
     17953       337  TIP3      H2             -7.7465434064      -25.7251898771       27.5282679870  TIP3      201             0.0000000000
     17954       338  TIP3      OH2             3.8575613468      -28.7846888977       33.4838273229  TIP3      202             0.0000000000
     17955       338  TIP3      H1              3.3844954725      -27.9482826401       33.2726295006  TIP3      202             0.0000000000
     17956       338  TIP3      H2              4.0812210164      -28.6351122394       34.4133457229  TIP3      202             0.0000000000
     17957       339  TIP3      OH2            -9.3172902894      -30.1937672944       31.9320768355  TIP3      203             0.0000000000
     17958       339  TIP3      H1             -9.5472071164      -29.5754044407       31.1948998832  TIP3      203             0.0000000000
     17959       339  TIP3      H2            -10.1536389548      -30.1613618946       32.4501091254  TIP3      203             0.0000000000
     17960       340  TIP3      OH2            -2.6990931121      -20.3796827290       25.9370466834  TIP3      204             0.0000000000
     17961       340  TIP3      H1             -2.8753487360      -20.4119771528       24.9698832535  TIP3      204             0.0000000000
     17962       340  TIP3      H2             -2.6300838323      -19.4241340704       26.0699749835  TIP3      204             0.0000000000
     17963       341  TIP3      OH2            -7.4078067172      -22.4228672819       31.9821752235  TIP3      205             0.0000000000
     17964       341  TIP3      H1             -7.9720509598      -21.7082915298       32.3662893629  TIP3      205             0.0000000000
     17965       341  TIP3      H2             -6.5799469223      -21.9155317784       31.8186402545  TIP3      205             0.0000000000
     17966       342  TIP3      OH2             1.0271387642      -29.7712257219       28.6935863085  TIP3      206             0.0000000000
     17967       342  TIP3      H1              0.5263138616      -29.8068879122       29.5327386778  TIP3      206             0.0000000000
     17968       342  TIP3      H2              1.8568507802      -29.3743498981       29.0010259592  TIP3      206             0.0000000000
     17969       343  TIP3      OH2            -9.9515384988      -28.3312914698       29.9790225873  TIP3      207             0.0000000000
     17970       343  TIP3      H1             -9.3924501741      -27.6329117212       30.3976960578  TIP3      207             0.0000000000
     17971       343  TIP3      H2             -9.4082435226      -28.5899412175       29.2049777168  TIP3      207             0.0000000000
     17972       344  TIP3      OH2            -8.5996036681      -20.3687988746       33.1980588598  TIP3      208             0.0000000000
     17973       344  TIP3      H1             -8.9284183794      -19.6689887509       32.6166505934  TIP3      208             0.0000000000
     17974       344  TIP3      H2             -9.4345962958      -20.5927059110       33.6899434279  TIP3      208             0.0000000000
     17975       345  TIP3      OH2           -12.7849839548      -20.7295877690       23.4133191477  TIP3      209             0.0000000000
     17976       345  TIP3      H1            -12.8210772359      -20.8889019311       22.4343381264  TIP3      209             0.0000000000
     17977       345  TIP3      H2            -12.8856062091      -19.7694014786       23.4313536753  TIP3      209             0.0000000000
     17978       346  TIP3      OH2             0.7546110293      -19.0564434001       30.6606713042  TIP3      210             0.0000000000
     17979       346  TIP3      H1             -0.1647938049      -18.9986677787       30.9981268912  TIP3      210             0.0000000000
     17980       346  TIP3      H2              0.8691273498      -18.1096607373       30.4347764443  TIP3      210             0.0000000000
     17981       347  TIP3      OH2             1.1348022846      -30.8198523131       32.2069282494  TIP3      211             0.0000000000
     17982       347  TIP3      H1              0.3155982623      -30.6419416696       31.6964325645  TIP3      211             0.0000000000
     17983       347  TIP3      H2              1.7923623671      -30.8666704041       31.4944423361  TIP3      211             0.0000000000
     17984       348  TIP3      OH2            -5.5978381391      -32.4204230369       29.4092058328  TIP3      212             0.0000000000
     17985       348  TIP3      H1             -5.8317198829      -33.3607343515       29.3773355067  TIP3      212             0.0000000000
     17986       348  TIP3      H2             -6.3524983126      -32.0467066211       29.9088861866  TIP3      212             0.0000000000
     17987       349  TIP3      OH2            -0.6081453614      -17.2437100799       27.4945775408  TIP3      213             0.0000000000
     17988       349  TIP3      H1             -0.2953873181      -18.0134805542       26.9558070655  TIP3      213             0.0000000000
     17989       349  TIP3      H2              0.1535019695      -16.6316702626       27.3325784199  TIP3      213             0.0000000000
     17990       350  TIP3      OH2             0.4479937102      -19.1799315700       26.0398029917  TIP3      214             0.0000000000
     17991       350  TIP3      H1              0.4120650134      -19.7354457510       25.2202226712  TIP3      214             0.0000000000
     17992       350  TIP3      H2              0.3749928942      -19.9000026564       26.6815641526  TIP3      214             0.0000000000
     17993       351  TIP3      OH2             1.7698868525      -20.9083086410       34.5732170794  TIP3      215             0.0000000000
     17994       351  TIP3      H1              2.0728043938      -21.6150422432       33.9558106483  TIP3      215             0.0000000000
     17995       351  TIP3      H2              2.0524121260      -20.1106951982       34.0874490056  TIP3      215             0.0000000000
     17996       352  TIP3      OH2            -3.4069702823      -24.1750515207       23.9199077998  TIP3      216             0.0000000000
     17997       352  TIP3      H1             -4.0774189557      -23.4679983501       23.8207410126  TIP3      216             0.0000000000
     17998       352  TIP3      H2             -2.6663777762      -23.8675794220       23.3693813256  TIP3      216             0.0000000000
     17999       353  TIP3      OH2             3.8136174904      -24.5476002345       32.6836016026  TIP3      217             0.0000000000
     18000       353  TIP3      H1              3.1789929207      -23.7988643189       32.6092723966  TIP3      217             0.0000000000
     18001       353  TIP3      H2              4.5049839586      -24.2192195907       32.0801315651  TIP3      217             0.0000000000
     18002       354  TIP3      OH2             0.1628895805      -24.0008675223       24.9678930793  TIP3      218             0.0000000000
     18003       354  TIP3      H1             -0.4955145616      -23.6564012293       25.6048166561  TIP3      218             0.0000000000
     18004       354  TIP3      H2              0.8838584644      -24.2609601205       25.5734102205  TIP3      218             0.0000000000
     18005       355  TIP3      OH2             0.0267741119      -25.3101907300       34.3890310164  TIP3      219             0.0000000000
     18006       355  TIP3      H1              0.1831406127      -24.4374189364       34.7907928589  TIP3      219             0.0000000000
     18007       355  TIP3      H2             -0.7260328829      -25.1012004399       33.7994020364  TIP3      219             0.0000000000
     18008       356  TIP3      OH2            -8.3580317922      -22.8429678322       27.2112990589  TIP3      220             0.0000000000
     18009       356  TIP3      H1             -8.8625462057      -23.1414250506       26.4276720666  TIP3      220             0.0000000000
     18010       356  TIP3      H2             -7.9500837086      -23.6853446078       27.5021750760  TIP3      220             0.0000000000
     18011       357  TIP3      OH2            -7.0343581567      -20.0364537412       29.6227005532  TIP3      221             0.0000000000
     18012       357  TIP3      H1             -6.7772409376      -20.3839953056       28.7503831800  TIP3      221             0.0000000000
     18013       357  TIP3      H2             -6.3693448472      -20.4155533752       30.2363191985  TIP3      221             0.0000000000
     18014       358  TIP3      OH2            -8.2751137951      -24.5468548377       30.7753860916  TIP3      222             0.0000000000
     18015       358  TIP3      H1             -8.0343810606      -24.4989593625       29.8230944551  TIP3      222             0.0000000000
     18016       358  TIP3      H2             -7.7888034865      -23.7871464308       31.1605196088  TIP3      222             0.0000000000
     18017       359  TIP3      OH2            -1.6529975122      -18.8926385218       31.6541656494  TIP3      223             0.0000000000
     18018       359  TIP3      H1             -2.1118122359      -18.3228282149       32.2838222689  TIP3      223             0.0000000000
     18019       359  TIP3      H2             -1.8317794985      -19.7920759006       31.9998672788  TIP3      223             0.0000000000
     18020       360  TIP3      OH2            -7.1116674824      -20.0430491105       35.4181801364  TIP3      224             0.0000000000
     18021       360  TIP3      H1             -7.8566213360      -19.5077858741       35.7823133811  TIP3      224             0.0000000000
     18022       360  TIP3      H2             -7.4200884683      -20.1740859250       34.4941134230  TIP3      224             0.0000000000
     18023       361  TIP3      OH2            -0.7728178860      -24.5868517396       22.5551435543  TIP3      225             0.0000000000
     18024       361  TIP3      H1             -0.3716999468      -24.3088583153       23.4144234651  TIP3      225             0.0000000000
     18025       361  TIP3      H2             -0.7326490413      -23.7308310353       22.0779314909  TIP3      225             0.0000000000
     18026       362  TIP3      OH2           -10.3762430721      -23.7639786181       34.1291456520  TIP3      226             0.0000000000
     18027       362  TIP3      H1            -10.1720373777      -23.1620352014       34.8653658171  TIP3      226             0.0000000000
     18028       362  TIP3      H2            -11.2800184342      -24.0119679965       34.4156913789  TIP3      226             0.0000000000
     18029       363  TIP3      OH2            -2.9253395134      -17.1827392315       26.2205729632  TIP3      227             0.0000000000
     18030       363  TIP3      H1             -2.0384694153      -17.1122668892       26.6409689617  TIP3      227             0.0000000000
     18031       363  TIP3      H2             -3.4650554774      -16.5036408914       26.6529136521  TIP3      227             0.0000000000
     18032       364  TIP3      OH2            -9.0860348874      -18.3618173151       36.3863477986  TIP3      228             0.0000000000
     18033       364  TIP3      H1             -9.0560015779      -17.7342928212       35.6310510750  TIP3      228             0.0000000000
     18034       364  TIP3      H2            -10.0565175695      -18.5039905673       36.4647426170  TIP3      228             0.0000000000
     18035       365  TIP3      OH2             2.6492999261      -32.0045211557       22.9601156064  TIP3      229             0.0000000000
     18036       365  TIP3      H1              1.9342505344      -31.3980172979       22.6836530650  TIP3      229             0.0000000000
     18037       365  TIP3      H2              3.2705874683      -31.8780202309       22.2366983354  TIP3      229             0.0000000000
     18038       366  TIP3      OH2            -9.4647992170      -23.9864507511       24.9146429949  TIP3      230             0.0000000000
     18039       366  TIP3      H1            -10.0857999030      -23.4862671070       24.3326758824  TIP3      230             0.0000000000
     18040       366  TIP3      H2             -9.9183978872      -24.8393393042       24.9038588908  TIP3      230             0.0000000000
     18041       367  TIP3      OH2           -13.2011671087      -21.8349203871       33.6449474307  TIP3      231             0.0000000000
     18042       367  TIP3      H1            -13.8443674804      -21.7254908506       32.9259562914  TIP3      231             0.0000000000
     18043       367  TIP3      H2            -12.7468344486      -22.6321397063       33.3382709515  TIP3      231             0.0000000000
     18044       368  TIP3      OH2           -12.7310888054      -19.2905204300       30.3824983940  TIP3      232             0.0000000000
     18045       368  TIP3      H1            -11.8079687078      -19.4473436855       30.1069532628  TIP3      232             0.0000000000
     18046       368  TIP3      H2            -12.6180480676      -18.6569742042       31.1164411781  TIP3      232             0.0000000000
     18047       369  TIP3      OH2             4.5930878783      -18.3193225623       36.1473839758  TIP3      233             0.0000000000
     18048       369  TIP3      H1              4.4222276517      -19.2747462883       36.1253987674  TIP3      233             0.0000000000
     18049       369  TIP3      H2              3.7177825287      -18.0043782293       36.4766562449  TIP3      233             0.0000000000
     18050       370  TIP3      OH2            -4.7061689141      -18.8227642976       35.2718105818  TIP3      234             0.0000000000
     18051       370  TIP3      H1             -4.5240137605      -18.0985328206       35.9000881806  TIP3      234             0.0000000000
     18052       370  TIP3      H2             -5.5992969934      -19.1399348390       35.5296173418  TIP3      234             0.0000000000
     18053       371  TIP3      OH2            -3.9817158198      -14.7439348264       24.1073739313  TIP3      235             0.0000000000
     18054       371  TIP3      H1             -4.0274288438      -14.1866019552       23.2816524121  TIP3      235             0.0000000000
     18055       371  TIP3      H2             -4.1218423197      -14.0371114657       24.7709291667  TIP3      235             0.0000000000
     18056       372  TIP3      OH2           -10.5342862799      -16.1282694082       26.8588323432  TIP3      236             0.0000000000
     18057       372  TIP3      H1            -10.1528688183      -16.5348553312       27.6643766036  TIP3      236             0.0000000000
     18058       372  TIP3      H2            -11.0734838374      -16.8563503811       26.4846557676  TIP3      236             0.0000000000
     18059       373  TIP3      OH2            -0.5100036141      -15.6100018166       21.1889993297  TIP3      237             0.0000000000
     18060       373  TIP3      H1             -0.7890869786      -16.5393697583       21.1561356207  TIP3      237             0.0000000000
     18061       373  TIP3      H2             -0.7078580505      -15.3608128256       22.1018542414  TIP3      237             0.0000000000
     18062       374  TIP3      OH2            -1.2758618768      -14.9908819173       24.2199910231  TIP3      238             0.0000000000
     18063       374  TIP3      H1             -2.2460081209      -14.8443153157       24.1815722204  TIP3      238             0.0000000000
     18064       374  TIP3      H2             -1.2865122687      -15.9408809244       24.4497312353  TIP3      238             0.0000000000
     18065       375  TIP3      OH2             1.4132979934      -26.5995700967       36.4566925576  TIP3      239             0.0000000000
     18066       375  TIP3      H1              1.1115126508      -26.1678926087       35.6273238392  TIP3      239             0.0000000000
     18067       375  TIP3      H2              1.2455621297      -27.5179884554       36.2295043476  TIP3      239             0.0000000000
     18068       376  TIP3      OH2           -10.9230597990      -20.5000221016       34.3953967690  TIP3      240             0.0000000000
     18069       376  TIP3      H1            -10.9027062904      -20.8392510162       35.3208076491  TIP3      240             0.0000000000
     18070       376  TIP3      H2            -11.7809323108      -20.8622553242       34.0826094785  TIP3      240             0.0000000000
     18071       377  TIP3      OH2            -8.1797106328      -31.8745172123       30.2207099178  TIP3      241             0.0000000000
     18072       377  TIP3      H1             -8.8956424198      -31.8132257050       29.5585707914  TIP3      241             0.0000000000
     18073       377  TIP3      H2             -8.5111890268      -31.2795042244       30.9258300748  TIP3      241             0.0000000000
     18074       378  TIP3      OH2            -4.1832518462      -31.8022153407       34.5990400095  TIP3      242             0.0000000000
     18075       378  TIP3      H1             -3.5129983635      -32.2609077709       34.0745344079  TIP3      242             0.0000000000
     18076       378  TIP3      H2             -4.9906828111      -31.9458748604       34.0653081938  TIP3      242             0.0000000000
     18077       379  TIP3      OH2            -0.8873170339      -27.9518154292       34.3610204437  TIP3      243             0.0000000000
     18078       379  TIP3      H1             -1.1541579285      -28.2798587325       35.2562752525  TIP3      243             0.0000000000
     18079       379  TIP3      H2             -0.6060839706      -27.0331229730       34.5367008975  TIP3      243             0.0000000000
     18080       380  TIP3      OH2            -3.9905711613      -29.4680781234       21.1555002247  TIP3      244             0.0000000000
     18081       380  TIP3      H1             -3.9828489090      -29.6833816953       22.0964346444  TIP3      244             0.0000000000
     18082       380  TIP3      H2             -3.0440915184      -29.3263579494       20.9869712023  TIP3      244             0.0000000000
     18083       381  TIP3      OH2            -8.2589585206      -27.0017075524       31.7114400600  TIP3      245             0.0000000000
     18084       381  TIP3      H1             -9.0369625398      -27.1369400692       32.2860120552  TIP3      245             0.0000000000
     18085       381  TIP3      H2             -8.3782513265      -26.0562642394       31.4428113544  TIP3      245             0.0000000000
     18086       382  TIP3      OH2            -8.2564787843      -26.9165730870       26.2635320230  TIP3      246             0.0000000000
     18087       382  TIP3      H1             -9.2433133460      -26.9443672412       26.2629231333  TIP3      246             0.0000000000
     18088       382  TIP3      H2             -8.0552272860      -27.4766679402       25.4793983765  TIP3      246             0.0000000000
     18089       383  TIP3      OH2            -2.5806440212      -26.2406184173       25.4631013767  TIP3      247             0.0000000000
     18090       383  TIP3      H1             -2.7746268052      -25.3505827131       25.0829513677  TIP3      247             0.0000000000
     18091       383  TIP3      H2             -2.0871925674      -26.6610022831       24.7240458806  TIP3      247             0.0000000000
     18092       384  TIP3      OH2            -3.5262870257      -26.6963186990       37.1536662614  TIP3      248             0.0000000000
     18093       384  TIP3      H1             -4.2649960200      -27.3340299573       37.2625912087  TIP3      248             0.0000000000
     18094       384  TIP3      H2             -2.7456296533      -27.2599467728       37.3730016291  TIP3      248             0.0000000000
     18095       385  TIP3      OH2            -1.6381682935      -26.4474642490       28.1930334631  TIP3      249             0.0000000000
     18096       385  TIP3      H1             -1.8890567187      -25.5494461782       27.9152443326  TIP3      249             0.0000000000
     18097       385  TIP3      H2             -1.7673308520      -26.9312379660       27.3608323014  TIP3      249             0.0000000000
     18098       386  TIP3      OH2           -10.7896695520      -27.2780768787       32.8465754948  TIP3      250             0.0000000000
     18099       386  TIP3      H1            -10.5875441249      -26.6794328157       33.5871733285  TIP3      250             0.0000000000
     18100       386  TIP3      H2            -11.3186121035      -27.9849115891       33.2595177810  TIP3      250             0.0000000000
     18101       387  TIP3      OH2           -13.1438503531      -30.1410991763       27.4640053324  TIP3      251             0.0000000000
     18102       387  TIP3      H1            -12.8131888248      -29.8226437077       28.3294360998  TIP3      251             0.0000000000
     18103       387  TIP3      H2            -12.3763580984      -30.6806087652       27.1815327679  TIP3      251             0.0000000000
     18104       388  TIP3      OH2            -2.6984602470      -25.2604861083       32.6223455831  TIP3      252             0.0000000000
     18105       388  TIP3      H1             -2.1702378803      -25.9648090581       32.1681728929  TIP3      252             0.0000000000
     18106       388  TIP3      H2             -3.2617171590      -25.8041505226       33.2198300103  TIP3      252             0.0000000000
     18107       389  TIP3      OH2            -5.3788177644      -29.5260779060       27.4069205154  TIP3      253             0.0000000000
     18108       389  TIP3      H1             -6.3506364281      -29.5610159884       27.4813930081  TIP3      253             0.0000000000
     18109       389  TIP3      H2             -5.1328148860      -29.6990945520       28.3291115420  TIP3      253             0.0000000000
     18110       390  TIP3      OH2           -10.8404704338      -27.5786678118       26.3500600103  TIP3      254             0.0000000000
     18111       390  TIP3      H1            -11.6469166042      -27.3237824818       25.8382880098  TIP3      254             0.0000000000
     18112       390  TIP3      H2            -10.6692776359      -28.5153263155       26.0825161268  TIP3      254             0.0000000000
     18113       391  TIP3      OH2            -7.4536075528      -27.7271831850       23.8206233943  TIP3      255             0.0000000000
     18114       391  TIP3      H1             -6.5271719913      -27.8686582564       24.1099553648  TIP3      255             0.0000000000
     18115       391  TIP3      H2             -7.5656390397      -26.7747500921       23.8230321513  TIP3      255             0.0000000000
     18116       392  TIP3      OH2            -0.8955126021      -30.0129014380       30.6638263606  TIP3      256             0.0000000000
     18117       392  TIP3      H1             -1.5144046703      -29.8633654502       31.4129944636  TIP3      256             0.0000000000
     18118       392  TIP3      H2             -1.5266135968      -30.3897654479       30.0065012309  TIP3      256             0.0000000000
     18119       393  TIP3      OH2             1.5193664146      -14.6144613984       37.6551016288  TIP3      257             0.0000000000
     18120       393  TIP3      H1              2.0248685940      -14.1515061038       36.9629520462  TIP3      257             0.0000000000
     18121       393  TIP3      H2              2.1151612197      -14.5644375606       38.4218388747  TIP3      257             0.0000000000
     18122       394  TIP3      OH2           -10.6627229882      -21.9879823789       36.6871665151  TIP3      258             0.0000000000
     18123       394  TIP3      H1             -9.9339186367      -21.6466765078       37.2515253102  TIP3      258             0.0000000000
     18124       394  TIP3      H2            -11.4000942770      -22.0527446697       37.3301110600  TIP3      258             0.0000000000
     18125       395  TIP3      OH2            -5.3101784666      -26.4524285596       29.0287204183  TIP3      259             0.0000000000
     18126       395  TIP3      H1             -4.3928731372      -26.7053727317       28.8575846818  TIP3      259             0.0000000000
     18127       395  TIP3      H2             -5.6238961404      -27.2149391564       29.5393298763  TIP3      259             0.0000000000
     18128       396  TIP3      OH2            -9.8262060960      -30.0579406895       25.8364648392  TIP3      260             0.0000000000
     18129       396  TIP3      H1            -10.5362687197      -30.7289434217       25.9206530488  TIP3      260             0.0000000000
     18130       396  TIP3      H2             -9.2051374612      -30.5963931824       25.2917713410  TIP3      260             0.0000000000
     18131       397  TIP3      OH2            -6.1078904899      -28.4890934068       31.6347249520  TIP3      261             0.0000000000
     18132       397  TIP3      H1             -6.9136030796      -27.9129284947       31.6322165350  TIP3      261             0.0000000000
     18133       397  TIP3      H2             -5.4506705746      -27.8883657087       32.0118441434  TIP3      261             0.0000000000
     18134       398  TIP3      OH2            -5.3100519001      -22.1527367252       23.8519127526  TIP3      262             0.0000000000
     18135       398  TIP3      H1             -6.0785929886      -22.6749406081       23.5338402990  TIP3      262             0.0000000000
     18136       398  TIP3      H2             -5.6992595907      -21.6661921384       24.6179983594  TIP3      262             0.0000000000
     18137       399  TIP3      OH2             2.1660647935      -22.4371838835       32.5023861780  TIP3      263             0.0000000000
     18138       399  TIP3      H1              2.6977080682      -21.8879247067       31.8703581082  TIP3      263             0.0000000000
     18139       399  TIP3      H2              1.3230631380      -22.4838030570       32.0176249173  TIP3      263             0.0000000000
     18140       400  TIP3      OH2            -4.2662369990      -21.4320259566       34.7616875621  TIP3      264             0.0000000000
     18141       400  TIP3      H1             -4.4248101707      -21.7083557416       35.6729512718  TIP3      264             0.0000000000
     18142       400  TIP3      H2             -4.4109193938      -20.4660801681       34.8429193717  TIP3      264             0.0000000000
     18143       401  TIP3      OH2            -1.2756557219      -27.5943005205       23.4936029785  TIP3      265             0.0000000000
     18144       401  TIP3      H1             -0.4155723148      -27.6520700542       23.9535172673  TIP3      265             0.0000000000
     18145       401  TIP3      H2             -1.0303386949      -26.9648258692       22.7872401062  TIP3      265             0.0000000000
     18146       402  TIP3      OH2            -9.9941335501      -22.5075831555       29.4472190386  TIP3      266             0.0000000000
     18147       402  TIP3      H1             -9.3652535958      -22.6022194700       28.7060186895  TIP3      266             0.0000000000
     18148       402  TIP3      H2             -9.8469100219      -23.3225910434       29.9618132682  TIP3      266             0.0000000000
     18149       403  TIP3      OH2            -3.3528586366      -20.4811256191       23.2547070781  TIP3      267             0.0000000000
     18150       403  TIP3      H1             -3.0602408323      -20.6612756019       22.3470755605  TIP3      267             0.0000000000
     18151       403  TIP3      H2             -4.0515382491      -21.1512609656       23.3915439699  TIP3      267             0.0000000000
     18152       404  TIP3      OH2           -12.9615033227      -24.7911852037       34.5220051481  TIP3      268             0.0000000000
     18153       404  TIP3      H1            -13.3342329384      -25.1719582839       35.3498902381  TIP3      268             0.0000000000
     18154       404  TIP3      H2            -13.7185457789      -24.8814648503       33.9121378105  TIP3      268             0.0000000000
     18155       405  TIP3      OH2            -6.7836763216      -24.3714463348       36.2185193606  TIP3      269             0.0000000000
     18156       405  TIP3      H1             -7.6493418080      -24.8031442376       36.1063799322  TIP3      269             0.0000000000
     18157       405  TIP3      H2             -6.4935673745      -24.3573429118       35.2730332395  TIP3      269             0.0000000000
     18158       406  TIP3      OH2            -1.2417065570      -19.3700882466       35.2268093583  TIP3      270             0.0000000000
     18159       406  TIP3      H1             -1.9450025219      -19.2555042871       34.5699818913  TIP3      270             0.0000000000
     18160       406  TIP3      H2             -1.5825930115      -18.8010221102       35.9467543325  TIP3      270             0.0000000000
     18161       407  TIP3      OH2             4.3933947028      -26.9685074247       23.0159344553  TIP3      271             0.0000000000
     18162       407  TIP3      H1              3.5729585406      -27.0920922052       22.5013637629  TIP3      271             0.0000000000
     18163       407  TIP3      H2              4.6626025556      -26.0753314087       22.7257117162  TIP3      271             0.0000000000
     18164       408  TIP3      OH2             4.4051616164      -21.1270965083       35.9636910756  TIP3      272             0.0000000000
     18165       408  TIP3      H1              3.4531515145      -21.1927861720       35.7459434452  TIP3      272             0.0000000000
     18166       408  TIP3      H2              4.8380344653      -21.2907316421       35.0952090759  TIP3      272             0.0000000000
     18167       409  TIP3      OH2             2.0621386708      -18.0136606657       23.4161360099  TIP3      273             0.0000000000
     18168       409  TIP3      H1              1.3199124765      -18.6317868928       23.5517590488  TIP3      273             0.0000000000
     18169       409  TIP3      H2              2.6196126123      -18.4986879751       22.7863436646  TIP3      273             0.0000000000
     18170       410  TIP3      OH2            -0.2929327274      -23.2686524341       30.6578988348  TIP3      274             0.0000000000
     18171       410  TIP3      H1             -1.1193442765      -23.7683848657       30.5439537621  TIP3      274             0.0000000000
     18172       410  TIP3      H2              0.3423204461      -23.8191533309       30.1612042833  TIP3      274             0.0000000000
     18173       411  TIP3      OH2            -8.0619911367      -18.8037434867       26.5730493895  TIP3      275             0.0000000000
     18174       411  TIP3      H1             -7.9829746033      -17.8855520701       26.2590747801  TIP3      275             0.0000000000
     18175       411  TIP3      H2             -9.0208573387      -18.8891182806       26.6688214518  TIP3      275             0.0000000000
     18176       412  TIP3      OH2            -6.5473648527      -21.0747904001       26.1978086255  TIP3      276             0.0000000000
     18177       412  TIP3      H1             -6.9130888344      -20.1675112684       26.2879243575  TIP3      276             0.0000000000
     18178       412  TIP3      H2             -7.2480562307      -21.6241222546       26.5998201075  TIP3      276             0.0000000000
     18179       413  TIP3      OH2            -5.9768779897      -17.2017274667       33.3481361665  TIP3      277             0.0000000000
     18180       413  TIP3      H1             -5.2742545998      -16.5742179373       33.0623827081  TIP3      277             0.0000000000
     18181       413  TIP3      H2             -5.5070644179      -17.6613098138       34.0704325065  TIP3      277             0.0000000000
     18182       414  TIP3      OH2            -8.2860980726      -15.9542861048       25.4083021464  TIP3      278             0.0000000000
     18183       414  TIP3      H1             -9.0817220758      -15.8697257764       25.9787980887  TIP3      278             0.0000000000
     18184       414  TIP3      H2             -7.7063789128      -15.2529322472       25.7888150775  TIP3      278             0.0000000000
     18185       415  TIP3      OH2            -2.6767398948      -21.3350374651       32.4237699202  TIP3      279             0.0000000000
     18186       415  TIP3      H1             -3.0669135293      -21.7165460867       33.2389406326  TIP3      279             0.0000000000
     18187       415  TIP3      H2             -2.1629832962      -22.0734219974       32.0607230501  TIP3      279             0.0000000000
     18188       416  TIP3      OH2             0.5570996489      -16.7486978337       34.5466401962  TIP3      280             0.0000000000
     18189       416  TIP3      H1             -0.3631921537      -17.0212069140       34.3816368137  TIP3      280             0.0000000000
     18190       416  TIP3      H2              0.6414392626      -16.0215144133       33.8868087739  TIP3      280             0.0000000000
     18191       417  TIP3      OH2           -11.7385497561      -29.9404386998       33.2935753164  TIP3      281             0.0000000000
     18192       417  TIP3      H1            -12.5767049592      -29.5794369362       32.9439544930  TIP3      281             0.0000000000
     18193       417  TIP3      H2            -11.9744337136      -30.2298125772       34.1881559090  TIP3      281             0.0000000000
     18194       418  TIP3      OH2             0.5549191810      -20.8052695925       24.0070340885  TIP3      282             0.0000000000
     18195       418  TIP3      H1              0.0397353354      -21.3652514395       23.3992253968  TIP3      282             0.0000000000
     18196       418  TIP3      H2              1.4500930558      -21.2003942535       23.8958776292  TIP3      282             0.0000000000
     18197       419  TIP3      OH2           -11.8150704434      -17.7304858101       32.4991167626  TIP3      283             0.0000000000
     18198       419  TIP3      H1            -11.1924858355      -18.4517835877       32.6640440744  TIP3      283             0.0000000000
     18199       419  TIP3      H2            -11.8348702281      -17.2976629727       33.3698078384  TIP3      283             0.0000000000
     18200       420  TIP3      OH2           -11.1084040823      -22.9510838986       22.7818811747  TIP3      284             0.0000000000
     18201       420  TIP3      H1            -11.5217250140      -22.2454670656       23.3083247675  TIP3      284             0.0000000000
     18202       420  TIP3      H2            -11.5427687325      -22.6952180030       21.9419201415  TIP3      284             0.0000000000
     18203       421  TIP3      OH2            -2.3983370751      -29.7483795510       33.0397902337  TIP3      285             0.0000000000
     18204       421  TIP3      H1             -1.8142607809      -29.2378919767       33.6327116776  TIP3      285             0.0000000000
     18205       421  TIP3      H2             -2.9809450518      -30.1503972227       33.7072697222  TIP3      285             0.0000000000
     18206       422  TIP3      OH2            -2.1187927024      -29.9965245393       24.7737176329  TIP3      286             0.0000000000
     18207       422  TIP3      H1             -1.9896305200      -29.2887715215       24.1078412621  TIP3      286             0.0000000000
     18208       422  TIP3      H2             -1.6778938868      -29.5381702469       25.5293010589  TIP3      286             0.0000000000
     18209       423  TIP3      OH2            -3.9137589859      -17.0519947889       22.6133999273  TIP3      287             0.0000000000
     18210       423  TIP3      H1             -3.7989845501      -17.5791293471       23.4234156404  TIP3      287             0.0000000000
     18211       423  TIP3      H2             -3.9214912835      -16.1423705572       22.9850382668  TIP3      287             0.0000000000
     18212       424  TIP3      OH2            -4.9720094566      -27.9746318583       25.1810940567  TIP3      288             0.0000000000
     18213       424  TIP3      H1             -4.2952951751      -27.2851552021       25.3550785782  TIP3      288             0.0000000000
     18214       424  TIP3      H2             -5.0385920633      -28.4338507802       26.0472955347  TIP3      288             0.0000000000
     18215       425  TIP3      OH2            -4.0430576848      -26.8852929522       34.3891072074  TIP3      289             0.0000000000
     18216       425  TIP3      H1             -3.8769049204      -26.7500414605       35.3443461915  TIP3      289             0.0000000000
     18217       425  TIP3      H2             -3.7806222976      -27.8069440225       34.2414530370  TIP3      289             0.0000000000
     18218       426  TIP3      OH2            -3.9893330891      -31.4391567266       25.9970643407  TIP3      290             0.0000000000
     18219       426  TIP3      H1             -4.5375381315      -30.7641265025       26.4628466164  TIP3      290             0.0000000000
     18220       426  TIP3      H2             -3.2638373111      -30.8781100125       25.6296608448  TIP3      290             0.0000000000
     18221       427  TIP3      OH2            -7.4356145455      -16.0947521062       22.9693921112  TIP3      291             0.0000000000
     18222       427  TIP3      H1             -6.5177486810      -15.7997983417       23.0077265436  TIP3      291             0.0000000000
     18223       427  TIP3      H2             -7.7318929609      -16.0711712899       23.9069730443  TIP3      291             0.0000000000
     18224       428  TIP3      OH2            -8.3548066152      -31.3574101641       24.0349639195  TIP3      292             0.0000000000
     18225       428  TIP3      H1             -8.5436563590      -30.8147173755       23.2461594131  TIP3      292             0.0000000000
     18226       428  TIP3      H2             -7.3809431111      -31.4400097945       23.9649805551  TIP3      292             0.0000000000
     18227       429  TIP3      OH2             1.2871702472      -29.6239986158       34.6861796820  TIP3      293             0.0000000000
     18228       429  TIP3      H1              0.4131546795      -29.3060813378       34.3932805213  TIP3      293             0.0000000000
     18229       429  TIP3      H2              1.7113959216      -29.8448113688       33.8319168785  TIP3      293             0.0000000000
     18230       430  TIP3      OH2             0.7408045511      -25.6503407836       29.0634905212  TIP3      294             0.0000000000
     18231       430  TIP3      H1             -0.0948500550      -26.1592213390       29.0560554641  TIP3      294             0.0000000000
     18232       430  TIP3      H2              1.3706858360      -26.2507035532       29.5173409048  TIP3      294             0.0000000000
     18233       431  TIP3      OH2             1.2382460992      -16.3978588844       30.6423217803  TIP3      295             0.0000000000
     18234       431  TIP3      H1              1.3339817362      -15.7692257753       29.9007925611  TIP3      295             0.0000000000
     18235       431  TIP3      H2              2.1754826475      -16.4682119388       30.8827363270  TIP3      295             0.0000000000
     18236       432  TIP3      OH2           -10.8561380735      -32.3303961276       29.4010204349  TIP3      296             0.0000000000
     18237       432  TIP3      H1            -11.1813234238      -32.8989081486       28.6829246995  TIP3      296             0.0000000000
     18238       432  TIP3      H2            -10.9292410704      -32.9884801657       30.1275442882  TIP3      296             0.0000000000
     18239       433  TIP3      OH2           -11.9672087473      -18.3152036996       26.2377601106  TIP3      297             0.0000000000
     18240       433  TIP3      H1            -12.6170229024      -17.9129010213       26.8454681499  TIP3      297             0.0000000000
     18241       433  TIP3      H2            -12.2752669221      -17.9956433192       25.3689029074  TIP3      297             0.0000000000
     18242       434  TIP3      OH2           -13.1586341117      -15.4174338823       37.0405199166  TIP3      298             0.0000000000
     18243       434  TIP3      H1            -12.5160901487      -15.6018319127       37.7661382489  TIP3      298             0.0000000000
     18244       434  TIP3      H2            -13.5342085033      -16.3097510598       36.9632570326  TIP3      298             0.0000000000
     18245       435  TIP3      OH2            -8.2664016160      -16.7830876897       38.4650763998  TIP3      299             0.0000000000
     18246       435  TIP3      H1             -7.3900464396      -17.2042168451       38.5601612350  TIP3      299             0.0000000000
     18247       435  TIP3      H2             -8.6105319086      -17.2587737545       37.6839507203  TIP3      299             0.0000000000
     18248       436  TIP3      OH2            -4.3240397513      -17.6539261880       20.0068000533  TIP3      300             0.0000000000
     18249       436  TIP3      H1             -4.3199367905      -17.2459844108       20.8987490875  TIP3      300             0.0000000000
     18250       436  TIP3      H2             -3.6739693703      -18.3513051803       20.1514617237  TIP3      300             0.0000000000
     18251       437  TIP3      OH2            -1.8765459137      -17.8905224464       37.4367617348  TIP3      301             0.0000000000
     18252       437  TIP3      H1             -2.1680646088      -18.8279605092       37.5825783446  TIP3      301             0.0000000000
     18253       437  TIP3      H2             -0.9967630115      -17.9251126749       37.8668349347  TIP3      301             0.0000000000
     18254       438  TIP3      OH2           -13.0433157320      -21.8156640485       38.1215944216  TIP3      302             0.0000000000
     18255       438  TIP3      H1            -13.3829676664      -22.7258226664       38.2064145748  TIP3      302             0.0000000000
     18256       438  TIP3      H2            -13.4725671647      -21.5291582022       37.2829453625  TIP3      302             0.0000000000
     18257       439  TIP3      OH2            -6.2474796764      -21.9007639536       37.2113805138  TIP3      303             0.0000000000
     18258       439  TIP3      H1             -6.5478777193      -21.2337304465       36.5439789338  TIP3      303             0.0000000000
     18259       439  TIP3      H2             -6.6092104689      -22.7315560730       36.8211166972  TIP3      303             0.0000000000
     18260       440  TIP3      OH2            -0.6285888411      -22.0049489144       35.1104007240  TIP3      304             0.0000000000
     18261       440  TIP3      H1              0.2429937276      -21.5504259854       35.0370342678  TIP3      304             0.0000000000
     18262       440  TIP3      H2             -1.1603048523      -21.1820611096       35.1720099853  TIP3      304             0.0000000000
     18263       441  TIP3      OH2           -12.3395199369      -24.7172813983       37.7281950602  TIP3      305             0.0000000000
     18264       441  TIP3      H1            -11.9136388343      -25.5802395501       37.7490800126  TIP3      305             0.0000000000
     18265       441  TIP3      H2            -11.8185663440      -24.2276751231       38.3911602747  TIP3      305             0.0000000000
     18266       442  TIP3      OH2            -7.3606526306      -23.7108367289       23.1485258376  TIP3      306             0.0000000000
     18267       442  TIP3      H1             -8.2399427803      -23.6133664752       23.5754682245  TIP3      306             0.0000000000
     18268       442  TIP3      H2             -7.0143372490      -24.4672542561       23.6306360208  TIP3      306             0.0000000000
     18269       443  TIP3      OH2            -8.4822688228      -25.6602716813       34.1664496190  TIP3      307             0.0000000000
     18270       443  TIP3      H1             -9.1416899721      -24.9406476858       34.1657639736  TIP3      307             0.0000000000
     18271       443  TIP3      H2             -7.7436916963      -25.2793024035       33.6516675578  TIP3      307             0.0000000000
     18272       444  TIP3      OH2            -2.5469629827      -23.0131955123       38.1836892004  TIP3      308             0.0000000000
     18273       444  TIP3      H1             -2.1000914057      -23.3440441572       37.3757505990  TIP3      308             0.0000000000
     18274       444  TIP3      H2             -1.7806848081      -23.0123384557       38.7914525572  TIP3      308             0.0000000000
     18275       445  TIP3      OH2            -7.6835294441      -27.7811006342       35.5065560415  TIP3      309             0.0000000000
     18276       445  TIP3      H1             -7.6440262138      -28.5897313764       34.9373765411  TIP3      309             0.0000000000
     18277       445  TIP3      H2             -8.0460809143      -27.1190900049       34.8677045374  TIP3      309             0.0000000000
     18278       446  TIP3      OH2            -7.2999712298      -29.7431149496       33.6179098130  TIP3      310             0.0000000000
     18279       446  TIP3      H1             -6.6524437635      -29.3953963027       32.9622792192  TIP3      310             0.0000000000
     18280       446  TIP3      H2             -8.0870106756      -29.8152631058       33.0363263295  TIP3      310             0.0000000000
     18281       447  TIP3      OH2            -6.0370662839      -24.1461437067       33.6491384156  TIP3      311             0.0000000000
     18282       447  TIP3      H1             -5.1324432371      -24.1867774262       33.3116016498  TIP3      311             0.0000000000
     18283       447  TIP3      H2             -6.4524768740      -23.4621558554       33.0857615158  TIP3      311             0.0000000000
     18284       448  TIP3      OH2            -1.0580421053      -27.0912425367       38.2565840825  TIP3      312             0.0000000000
     18285       448  TIP3      H1             -0.5192685993      -27.7966808261       38.6415478484  TIP3      312             0.0000000000
     18286       448  TIP3      H2             -0.3814370342      -26.5505884594       37.8261059940  TIP3      312             0.0000000000
     18287       449  TIP3      OH2             0.1350891857      -23.5401877364       37.2441437207  TIP3      313             0.0000000000
     18288       449  TIP3      H1             -0.1403438509      -23.0531243499       36.4380184626  TIP3      313             0.0000000000
     18289       449  TIP3      H2              1.0135595063      -23.8793473856       36.9797324531  TIP3      313             0.0000000000
     18290       450  TIP3      OH2            -9.0377172339      -27.1459562645       37.8910702006  TIP3      314             0.0000000000
     18291       450  TIP3      H1             -9.9045231569      -27.6032376814       37.8718504884  TIP3      314             0.0000000000
     18292       450  TIP3      H2             -8.7307689117      -27.3130553122       36.9728535353  TIP3      314             0.0000000000
     18293       451  TIP3      OH2            -6.8096256115      -32.3871680189       33.8310134311  TIP3      315             0.0000000000
     18294       451  TIP3      H1             -7.0254223771      -31.4365542886       33.6863090111  TIP3      315             0.0000000000
     18295       451  TIP3      H2             -7.6543805537      -32.8209252713       33.6261560068  TIP3      315             0.0000000000
     18296       452  TIP3      OH2            -5.8327051884      -28.0177869495       37.6098435835  TIP3      316             0.0000000000
     18297       452  TIP3      H1             -6.4561123933      -28.5457177847       38.1440275894  TIP3      316             0.0000000000
     18298       452  TIP3      H2             -6.3090408772      -28.0079215874       36.7513265602  TIP3      316             0.0000000000
     18299       453  TIP3      OH2            -2.0960881383      -29.1838838082       36.5514879729  TIP3      317             0.0000000000
     18300       453  TIP3      H1             -2.8455043373      -29.5543847175       37.0408500692  TIP3      317             0.0000000000
     18301       453  TIP3      H2             -1.3590455108      -29.6216745647       37.0341370328  TIP3      317             0.0000000000
     18302       454  TIP3      OH2            -0.4604880098      -30.7199810747       38.0328424131  TIP3      318             0.0000000000
     18303       454  TIP3      H1             -0.8534138202      -31.6116459259       37.9839003320  TIP3      318             0.0000000000
     18304       454  TIP3      H2             -0.6917544923      -30.4995509928       38.9687935652  TIP3      318             0.0000000000
     18305       455  TIP3      OH2           -11.0967805858      -29.2374826613       37.7472028118  TIP3      319             0.0000000000
     18306       455  TIP3      H1            -10.9331600549      -29.9708852971       37.1266965856  TIP3      319             0.0000000000
     18307       455  TIP3      H2            -11.2170313167      -29.7775867904       38.5669495366  TIP3      319             0.0000000000
     18308       456  TIP3      OH2            -5.9723824095      -32.1296052732       36.5753298047  TIP3      320             0.0000000000
     18309       456  TIP3      H1             -6.1879337332      -32.8969224866       36.0293892147  TIP3      320             0.0000000000
     18310       456  TIP3      H2             -5.3079167404      -31.7151690132       35.9873141850  TIP3      320             0.0000000000
     18311       457  TIP3      OH2            -6.3765240298      -31.3471438134       39.0906156825  TIP3      321             0.0000000000
     18312       457  TIP3      H1             -6.7782474308      -31.7507171294       38.2971439663  TIP3      321             0.0000000000
     18313       457  TIP3      H2             -6.8286495571      -30.4760774991       39.0882098331  TIP3      321             0.0000000000
     18314       458  TIP3      OH2           -14.2486327204      -14.9276392459       26.3755267666  TIP3      322             0.0000000000
     18315       458  TIP3      H1            -14.9330365895      -15.4805705924       25.9329538792  TIP3      322             0.0000000000
     18316       458  TIP3      H2            -13.9046478269      -15.5342918873       27.0641005467  TIP3      322             0.0000000000
     18317       459  TIP3      OH2           -13.3716294516      -16.6952829153       28.2827868635  TIP3      323             0.0000000000
     18318       459  TIP3      H1            -13.7973093536      -17.4368813514       28.7408108538  TIP3      323             0.0000000000
     18319       459  TIP3      H2            -12.6508567954      -16.4547130340       28.9102057048  TIP3      323             0.0000000000
     18320       460  TIP3      OH2             4.0258623138      -15.5038902032       30.8859403902  TIP3      324             0.0000000000
     18321       460  TIP3      H1              4.2817766938      -15.7637047429       31.7859175744  TIP3      324             0.0000000000
     18322       460  TIP3      H2              4.4067883762      -14.6222499566       30.8466030984  TIP3      324             0.0000000000
     18323       461  TIP3      OH2             3.6717461990      -16.1572244732       33.7708471209  TIP3      325             0.0000000000
     18324       461  TIP3      H1              3.3241936347      -17.0000937466       33.3989090393  TIP3      325             0.0000000000
     18325       461  TIP3      H2              3.9684029326      -16.4605963037       34.6428099590  TIP3      325             0.0000000000
     18326       462  TIP3      OH2             2.2155818719      -20.8105766439       38.6313170158  TIP3      326             0.0000000000
     18327       462  TIP3      H1              1.4864827609      -20.5774242797       39.2485180321  TIP3      326             0.0000000000
     18328       462  TIP3      H2              2.6709190104      -19.9420738668       38.5864368347  TIP3      326             0.0000000000
     18329       463  TIP3      OH2             3.0176936309      -21.9076716960       24.1582164957  TIP3      327             0.0000000000
     18330       463  TIP3      H1              3.9107959305      -21.4988371335       24.1416040386  TIP3      327             0.0000000000
     18331       463  TIP3      H2              3.1745826189      -22.6940098705       24.7059163679  TIP3      327             0.0000000000
     18332       464  TIP3      OH2             4.1984544457      -23.8656750965       25.8481460164  TIP3      328             0.0000000000
     18333       464  TIP3      H1              3.3701578093      -24.2820172225       26.1696929355  TIP3      328             0.0000000000
     18334       464  TIP3      H2              4.6231042065      -23.6350922690       26.6868664505  TIP3      328             0.0000000000
     18335       465  TIP3      OH2             3.7495923478      -21.3383908070       30.7464980174  TIP3      329             0.0000000000
     18336       465  TIP3      H1              4.4140159752      -22.0392407826       30.5782382152  TIP3      329             0.0000000000
     18337       465  TIP3      H2              4.1975836406      -20.5383685631       30.3915578087  TIP3      329             0.0000000000
     18338       466  TIP3      OH2             2.3127336004      -18.4547641275       33.1141749712  TIP3      330             0.0000000000
     18339       466  TIP3      H1              1.5611584852      -18.1164307481       33.6334468515  TIP3      330             0.0000000000
     18340       466  TIP3      H2              1.8678410637      -18.7328246608       32.2873711596  TIP3      330             0.0000000000
     18341       467  TIP3      OH2             1.8708038367      -25.2209889805       26.5764918524  TIP3      331             0.0000000000
     18342       467  TIP3      H1              1.1771896975      -25.9077933467       26.5156856607  TIP3      331             0.0000000000
     18343       467  TIP3      H2              1.7961628958      -25.0886761580       27.5466129249  TIP3      331             0.0000000000
     18344       468  TIP3      OH2           -13.1674691112      -23.3272135262       30.7663330420  TIP3      332             0.0000000000
     18345       468  TIP3      H1            -13.3084947270      -23.6559039564       29.8448259857  TIP3      332             0.0000000000
     18346       468  TIP3      H2            -12.2330522080      -23.6196692688       30.9011668518  TIP3      332             0.0000000000
     18347       469  TIP3      OH2             3.0645331843      -23.8789877776       36.3514592230  TIP3      333             0.0000000000
     18348       469  TIP3      H1              3.4799799833      -24.7694988822       36.4840689698  TIP3      333             0.0000000000
     18349       469  TIP3      H2              3.8289436688      -23.3179998445       36.1215585252  TIP3      333             0.0000000000
     18350       470  TIP3      OH2             4.1082049979      -26.3830572295       36.7602997316  TIP3      334             0.0000000000
     18351       470  TIP3      H1              3.2398587020      -26.8338866960       36.6952619502  TIP3      334             0.0000000000
     18352       470  TIP3      H2              4.7671829204      -27.1186379317       36.7246448584  TIP3      334             0.0000000000
     18353       471  TIP3      OH2             0.9055928818      -27.5046883742       25.3622806125  TIP3      335             0.0000000000
     18354       471  TIP3      H1              1.3869607414      -28.3505834446       25.1778170552  TIP3      335             0.0000000000
     18355       471  TIP3      H2              1.6267073848      -26.8876627397       25.1656724191  TIP3      335             0.0000000000
     18356       472  TIP3      OH2             2.3995083322      -27.3104302640       30.3837184861  TIP3      336             0.0000000000
     18357       472  TIP3      H1              3.3696561286      -27.2079898948       30.4831057294  TIP3      336             0.0000000000
     18358       472  TIP3      H2              2.1778418793      -27.4685438362       31.3141470031  TIP3      336             0.0000000000
     18359       473  TIP3      OH2             2.1952550887      -26.6071772521       33.0656387272  TIP3      337             0.0000000000
     18360       473  TIP3      H1              1.3286604727      -26.1549052153       33.1140974145  TIP3      337             0.0000000000
     18361       473  TIP3      H2              2.7950884526      -25.8330471859       32.9039430751  TIP3      337             0.0000000000
     18362       474  TIP3      OH2           -13.2927240624      -28.2570966451       36.6103001031  TIP3      338             0.0000000000
     18363       474  TIP3      H1            -12.4720031732      -28.5447411218       37.0551319701  TIP3      338             0.0000000000
     18364       474  TIP3      H2            -13.8335169210      -29.0757885165       36.6655109633  TIP3      338             0.0000000000
     18365       475  TIP3      OH2             4.7760658503      -32.1349559686       38.7382813348  TIP3      339             0.0000000000
     18366       475  TIP3      H1              4.7431718542      -32.8299557377       38.0642497497  TIP3      339             0.0000000000
     18367       475  TIP3      H2              4.5687405915      -31.3551283219       38.1792612100  TIP3      339             0.0000000000
     18368       476  TIP3      OH2             2.4984847778      -29.5261613124       24.8346276863  TIP3      340             0.0000000000
     18369       476  TIP3      H1              2.6938339565      -30.0639372107       25.6307177117  TIP3      340             0.0000000000
     18370       476  TIP3      H2              2.1600203158      -30.2090312341       24.2292422461  TIP3      340             0.0000000000
     18371       477  TIP3      OH2           -12.0918962774      -29.9802326198       30.0143074470  TIP3      341             0.0000000000
     18372       477  TIP3      H1            -11.6318254717      -30.8356516631       29.8445033406  TIP3      341             0.0000000000
     18373       477  TIP3      H2            -11.3479771859      -29.3496700510       30.0869870685  TIP3      341             0.0000000000
     18374       478  TIP3      OH2           -13.6775014113      -27.0629130774       30.7425337471  TIP3      342             0.0000000000
     18375       478  TIP3      H1            -13.2327481804      -27.4909379329       29.9863970306  TIP3      342             0.0000000000
     18376       478  TIP3      H2            -13.1573181776      -26.2532600400       30.8320166644  TIP3      342             0.0000000000
     18377       479  TIP3      OH2             3.7978479322      -30.3168143930       36.9149882598  TIP3      343             0.0000000000
     18378       479  TIP3      H1              2.9462395203      -30.0607071796       37.3208016946  TIP3      343             0.0000000000
     18379       479  TIP3      H2              3.4773142663      -30.8274256364       36.1366452059  TIP3      343             0.0000000000
     18380       480  TIP3      OH2           -13.7139525754      -30.8547610864       24.3256089794  TIP3      344             0.0000000000
     18381       480  TIP3      H1            -13.8997798315      -30.8561550914       25.2799118139  TIP3      344             0.0000000000
     18382       480  TIP3      H2            -13.2347734302      -30.0272361902       24.2086572780  TIP3      344             0.0000000000
     18383       481  TIP3      OH2             1.2615818873      -15.4484813312       26.9346683340  TIP3      345             0.0000000000
     18384       481  TIP3      H1              1.8271098561      -15.5272691684       26.1488597959  TIP3      345             0.0000000000
     18385       481  TIP3      H2              1.6435987111      -14.7134189519       27.4459246917  TIP3      345             0.0000000000
     18386       482  TIP3      OH2           -14.2387979136      -32.0914006503       32.8175802393  TIP3      346             0.0000000000
     18387       482  TIP3      H1            -13.2888377301      -31.9847805783       32.9666072596  TIP3      346             0.0000000000
     18388       482  TIP3      H2            -14.4270227400      -31.3984459221       32.1533927044  TIP3      346             0.0000000000
     18389       483  TIP3      OH2           -11.7327735317      -18.7995967794       36.9514880627  TIP3      347             0.0000000000
     18390       483  TIP3      H1            -12.6637051159      -18.5643446296       36.8018046355  TIP3      347             0.0000000000
     18391       483  TIP3      H2            -11.7300854952      -19.0520412875       37.8856988292  TIP3      347             0.0000000000
     18392       484  TIP3      OH2            -8.6415970299      -16.9666424353       34.1069464573  TIP3      348             0.0000000000
     18393       484  TIP3      H1             -8.8705545549      -16.2415852270       33.4893622325  TIP3      348             0.0000000000
     18394       484  TIP3      H2             -7.7103581088      -17.1345003006       33.8386312407  TIP3      348             0.0000000000
     18395       485  TIP3      OH2            -4.6050760597      -16.2106652588       36.2440354507  TIP3      349             0.0000000000
     18396       485  TIP3      H1             -4.4156531704      -16.4169261702       37.1849048533  TIP3      349             0.0000000000
     18397       485  TIP3      H2             -3.7628715596      -15.7590842175       36.0006509754  TIP3      349             0.0000000000
     18398       486  TIP3      OH2            -2.4795086428      -14.6126341549       35.7579760607  TIP3      350             0.0000000000
     18399       486  TIP3      H1             -1.7252792472      -15.1347824909       35.4459737251  TIP3      350             0.0000000000
     18400       486  TIP3      H2             -2.1439007133      -14.2890545873       36.6222666693  TIP3      350             0.0000000000
     18401       487  TIP3      OH2             2.8773667915      -32.2652262561       35.1320567173  TIP3      351             0.0000000000
     18402       487  TIP3      H1              2.1515043180      -31.8938237663       34.6109358195  TIP3      351             0.0000000000
     18403       487  TIP3      H2              3.5010965038      -32.4965571408       34.4079149187  TIP3      351             0.0000000000
     18404       488  TIP3      OH2           -11.2264444760      -14.2961708429       33.3469683854  TIP3      352             0.0000000000
     18405       488  TIP3      H1            -11.9495154371      -13.6980505491       33.0514420042  TIP3      352             0.0000000000
     18406       488  TIP3      H2            -11.3624074130      -14.2483966441       34.3027106172  TIP3      352             0.0000000000
     18407       489  TIP3      OH2            -8.9456165903      -14.9877970523       32.2857653526  TIP3      353             0.0000000000
     18408       489  TIP3      H1             -9.8982078375      -14.8016365181       32.4814888519  TIP3      353             0.0000000000
     18409       489  TIP3      H2             -8.7668889269      -14.2732707027       31.6389606752  TIP3      353             0.0000000000
     18410       490  TIP3      OH2            -4.3821641420      -15.3473972357       32.1944780208  TIP3      354             0.0000000000
     18411       490  TIP3      H1             -5.2522278628      -14.9233023169       32.0612231886  TIP3      354             0.0000000000
     18412       490  TIP3      H2             -3.9012941133      -14.5689796989       32.5553585255  TIP3      354             0.0000000000
     18413       491  TIP3      OH2            -1.9749505852      -16.3777723253       33.1301936192  TIP3      355             0.0000000000
     18414       491  TIP3      H1             -2.6789689409      -16.0893632811       32.5176543497  TIP3      355             0.0000000000
     18415       491  TIP3      H2             -1.2652856469      -15.7414689199       32.9104286426  TIP3      355             0.0000000000
     18416       492  TIP3      OH2             0.3408953532      -14.7647135811       32.8212376187  TIP3      356             0.0000000000
     18417       492  TIP3      H1              0.4275698217      -13.7900615255       32.8372776408  TIP3      356             0.0000000000
     18418       492  TIP3      H2              0.6444246522      -14.9584471320       31.9162468761  TIP3      356             0.0000000000
     18419       493  TIP3      OH2           -11.7025707528      -16.1550829914       30.3312519868  TIP3      357             0.0000000000
     18420       493  TIP3      H1            -11.8497222819      -16.6207231976       31.1839178540  TIP3      357             0.0000000000
     18421       493  TIP3      H2            -10.7654535207      -16.3942558187       30.1363927391  TIP3      357             0.0000000000
     18422       494  TIP3      OH2            -9.3682668004      -16.9872903211       29.1924564555  TIP3      358             0.0000000000
     18423       494  TIP3      H1             -9.4498190868      -17.9543055989       29.3397657418  TIP3      358             0.0000000000
     18424       494  TIP3      H2             -8.5263889467      -16.8321853817       29.6742296163  TIP3      358             0.0000000000
     18425       495  TIP3      OH2            -7.0907402575      -16.9672045731       30.5814991539  TIP3      359             0.0000000000
     18426       495  TIP3      H1             -6.6472521754      -17.8182672109       30.4137712741  TIP3      359             0.0000000000
     18427       495  TIP3      H2             -6.9304296817      -16.8338840154       31.5332999283  TIP3      359             0.0000000000
     18428       496  TIP3      OH2            -3.2921770203      -30.8096811089       29.2835803077  TIP3      360             0.0000000000
     18429       496  TIP3      H1             -4.0534081677      -31.3419760856       29.5880759106  TIP3      360             0.0000000000
     18430       496  TIP3      H2             -3.0383051110      -31.2569026019       28.4596138313  TIP3      360             0.0000000000
     18431       497  TIP3      OH2             2.3224369792      -32.8775792578       29.7517547296  TIP3      361             0.0000000000
     18432       497  TIP3      H1              2.8391441027      -32.0609122878       29.6666864608  TIP3      361             0.0000000000
     18433       497  TIP3      H2              2.5425593333      -33.1599199142       30.6456789706  TIP3      361             0.0000000000
     18434       498  TIP3      OH2             3.2893680277      -31.0219286363       27.1524993997  TIP3      362             0.0000000000
     18435       498  TIP3      H1              3.8755551411      -31.5059802962       26.5416234821  TIP3      362             0.0000000000
     18436       498  TIP3      H2              3.9111714147      -30.3667520675       27.5418004987  TIP3      362             0.0000000000
     18437       499  TIP3      OH2           -11.5314477724      -31.9415351178       26.4078730213  TIP3      363             0.0000000000
     18438       499  TIP3      H1            -12.3666559020      -32.4014984450       26.5884395879  TIP3      363             0.0000000000
     18439       499  TIP3      H2            -10.9605513858      -32.7212866901       26.2738250570  TIP3      363             0.0000000000
     18440       500  TIP3      OH2           -13.1269802398      -33.1312203150       22.2536155005  TIP3      364             0.0000000000
     18441       500  TIP3      H1            -12.5082161504      -32.7524940048       21.6064576083  TIP3      364             0.0000000000
     18442       500  TIP3      H2            -13.1948667426      -32.4489327972       22.9449118547  TIP3      364             0.0000000000
     18443       501  TIP3      OH2            -7.4926150295      -32.8376256102       26.8641728738  TIP3      365             0.0000000000
     18444       501  TIP3      H1             -6.6213244319      -32.4395888894       26.7764153554  TIP3      365             0.0000000000
     18445       501  TIP3      H2             -7.2807440148      -33.6621285971       27.3373743070  TIP3      365             0.0000000000
     18446       502  TIP3      OH2            -1.5893510045      -32.4224580903       27.7287966016  TIP3      366             0.0000000000
     18447       502  TIP3      H1             -2.3752692973      -32.5751918688       27.1773548216  TIP3      366             0.0000000000
     18448       502  TIP3      H2             -1.8040899478      -32.9379487963       28.5381736746  TIP3      366             0.0000000000
     18449       503  TIP3      OH2             0.1770804536      -31.5556857514       24.9810881266  TIP3      367             0.0000000000
     18450       503  TIP3      H1             -0.6300054072      -31.0768887418       24.7117433074  TIP3      367             0.0000000000
     18451       503  TIP3      H2             -0.1079463160      -32.4853127037       24.9647266924  TIP3      367             0.0000000000
     18452       504  TIP3      OH2           -12.9378473241      -16.3011784206       24.3457179013  TIP3      368             0.0000000000
     18453       504  TIP3      H1            -13.0120578478      -16.3673924732       23.3729189554  TIP3      368             0.0000000000
     18454       504  TIP3      H2            -13.4761337924      -15.5101049104       24.4932743865  TIP3      368             0.0000000000
     18455       505  TIP3      OH2            -5.5278689529      -31.1884952981       23.7261175506  TIP3      369             0.0000000000
     18456       505  TIP3      H1             -4.8626818439      -31.7005063232       24.2244883682  TIP3      369             0.0000000000
     18457       505  TIP3      H2             -5.3952950745      -30.3304813760       24.1581537618  TIP3      369             0.0000000000
     18458       506  TIP3      OH2             2.6428615717      -15.6256332824       24.6182708476  TIP3      370             0.0000000000
     18459       506  TIP3      H1              2.3160571928      -16.4925074863       24.2390991612  TIP3      370             0.0000000000
     18460       506  TIP3      H2              3.5459921228      -15.6442249365       24.2529437159  TIP3      370             0.0000000000
     18461       507  TIP3      OH2           -11.9575710073      -31.8626016170       36.5379459312  TIP3      371             0.0000000000
     18462       507  TIP3      H1            -12.2838907582      -32.5756684089       35.9598898418  TIP3      371             0.0000000000
     18463       507  TIP3      H2            -11.1140087459      -32.2314338288       36.8756605912  TIP3      371             0.0000000000
     18464       508  TIP3      OH2            -9.5236208711       33.5376001158       37.4359412125  TIP3      372             0.0000000000
     18465       508  TIP3      H1             -8.5978303240       33.5873786194       37.6999809121  TIP3      372             0.0000000000
     18466       508  TIP3      H2             -9.7634330051       32.6183682529       37.6653210027  TIP3      372             0.0000000000
     18467       509  TIP3      OH2           -10.9309026135      -15.7340864615       20.9212158829  TIP3      373             0.0000000000
     18468       509  TIP3      H1            -11.7661910812      -15.2460312581       20.7813200245  TIP3      373             0.0000000000
     18469       509  TIP3      H2            -10.3882268829      -15.0186382479       20.5719963487  TIP3      373             0.0000000000
     18470       510  TIP3      OH2            -2.1530848484       33.3232565021       37.9993177556  TIP3      374             0.0000000000
     18471       510  TIP3      H1             -1.7781806360       32.6268691046       38.5638572891  TIP3      374             0.0000000000
     18472       510  TIP3      H2             -1.8795645039       32.9794611588       37.1251757811  TIP3      374             0.0000000000
     18473       511  TIP3      OH2             2.2747594632      -17.1342995001       36.5616024379  TIP3      375             0.0000000000
     18474       511  TIP3      H1              1.6062770169      -17.1316153004       35.8354206553  TIP3      375             0.0000000000
     18475       511  TIP3      H2              2.2269100685      -16.2137530001       36.8683676028  TIP3      375             0.0000000000
     18476       512  TIP3      OH2            16.7317878495      -23.5977782269       26.9641423988  TIP3      376             0.0000000000
     18477       512  TIP3      H1             16.5839696451      -22.6495343869       27.1488683950  TIP3      376             0.0000000000
     18478       512  TIP3      H2             16.1800042753      -23.6880959583       26.1522491583  TIP3      376             0.0000000000
     18479       513  TIP3      OH2            15.4902313242      -24.3896713462       30.6110732541  TIP3      377             0.0000000000
     18480       513  TIP3      H1             15.8021441055      -24.9122932486       31.3767178515  TIP3      377             0.0000000000
     18481       513  TIP3      H2             15.1179331903      -25.0737882757       30.0219766534  TIP3      377             0.0000000000
     18482       514  TIP3      OH2             7.7112628069      -24.7633363705       31.6631754323  TIP3      378             0.0000000000
     18483       514  TIP3      H1              7.6099111319      -25.6516809997       32.0671937109  TIP3      378             0.0000000000
     18484       514  TIP3      H2              8.3279563394      -24.3620627820       32.3075786433  TIP3      378             0.0000000000
     18485       515  TIP3      OH2            18.8613655133      -21.2864316931       28.7577907300  TIP3      379             0.0000000000
     18486       515  TIP3      H1             18.5217231028      -21.9355091345       29.3810899691  TIP3      379             0.0000000000
     18487       515  TIP3      H2             19.3366875640      -20.6839492892       29.3526508273  TIP3      379             0.0000000000
     18488       516  TIP3      OH2             8.8699176348      -19.5507212854       29.9241850046  TIP3      380             0.0000000000
     18489       516  TIP3      H1              8.5822724396      -20.4813202708       29.8252157026  TIP3      380             0.0000000000
     18490       516  TIP3      H2              9.8387042461      -19.7120819162       29.9974795840  TIP3      380             0.0000000000
     18491       517  TIP3      OH2             5.1881593340      -26.8496688303       25.7213950869  TIP3      381             0.0000000000
     18492       517  TIP3      H1              4.9954021209      -25.9223219130       25.9194727981  TIP3      381             0.0000000000
     18493       517  TIP3      H2              4.5860246516      -27.0266383208       24.9782892865  TIP3      381             0.0000000000
     18494       518  TIP3      OH2             5.7191869008      -24.3724310090       28.2446734958  TIP3      382             0.0000000000
     18495       518  TIP3      H1              6.1600239560      -25.2315298085       28.4644241647  TIP3      382             0.0000000000
     18496       518  TIP3      H2              6.3410323785      -23.9848142355       27.6145220721  TIP3      382             0.0000000000
     18497       519  TIP3      OH2            16.1101916099      -15.9796217268       28.2728198866  TIP3      383             0.0000000000
     18498       519  TIP3      H1             16.8701529073      -16.5060138116       27.9465775267  TIP3      383             0.0000000000
     18499       519  TIP3      H2             15.9320246622      -16.4971520066       29.0734299672  TIP3      383             0.0000000000
     18500       520  TIP3      OH2            13.4351944249      -21.2236882312       31.3561680774  TIP3      384             0.0000000000
     18501       520  TIP3      H1             13.7037035256      -21.7640564514       30.5984085869  TIP3      384             0.0000000000
     18502       520  TIP3      H2             14.3123550622      -20.8715291110       31.6123206861  TIP3      384             0.0000000000
     18503       521  TIP3      OH2            22.0879208600      -30.1464965721       31.4259019745  TIP3      385             0.0000000000
     18504       521  TIP3      H1             22.4092017457      -29.3958517323       31.9683886689  TIP3      385             0.0000000000
     18505       521  TIP3      H2             22.6952577651      -30.1888054905       30.6687619331  TIP3      385             0.0000000000
     18506       522  TIP3      OH2            17.6090567381      -27.2268353138       30.9933608609  TIP3      386             0.0000000000
     18507       522  TIP3      H1             18.0489632621      -28.0447731662       31.2804132109  TIP3      386             0.0000000000
     18508       522  TIP3      H2             17.3846710879      -27.4520301905       30.0620960975  TIP3      386             0.0000000000
     18509       523  TIP3      OH2             9.9917487624      -29.2972680245       28.0738352304  TIP3      387             0.0000000000
     18510       523  TIP3      H1             10.1718964292      -28.5980224095       27.4114916194  TIP3      387             0.0000000000
     18511       523  TIP3      H2              9.6095403668      -29.9853700956       27.4872171793  TIP3      387             0.0000000000
     18512       524  TIP3      OH2            18.3260838232      -29.3796258593       26.8284301338  TIP3      388             0.0000000000
     18513       524  TIP3      H1             18.6429112774      -29.4530497621       27.7500194010  TIP3      388             0.0000000000
     18514       524  TIP3      H2             18.6711473187      -28.5088973527       26.5779216044  TIP3      388             0.0000000000
     18515       525  TIP3      OH2             6.9853924426      -26.6442786202       28.8322310358  TIP3      389             0.0000000000
     18516       525  TIP3      H1              7.6507164058      -27.0242390366       29.4379076456  TIP3      389             0.0000000000
     18517       525  TIP3      H2              7.2574191149      -26.9766627267       27.9592370427  TIP3      389             0.0000000000
     18518       526  TIP3      OH2            11.6232000182      -25.4405421410       28.3777501660  TIP3      390             0.0000000000
     18519       526  TIP3      H1             12.4331741893      -25.7252905753       28.8386664144  TIP3      390             0.0000000000
     18520       526  TIP3      H2             11.5420179601      -26.1519203121       27.7147236863  TIP3      390             0.0000000000
     18521       527  TIP3      OH2            22.7810695427      -28.5883125240       33.7131523611  TIP3      391             0.0000000000
     18522       527  TIP3      H1             22.1944918627      -27.8933946742       33.3346387120  TIP3      391             0.0000000000
     18523       527  TIP3      H2             22.4983728841      -28.6038974568       34.6386693872  TIP3      391             0.0000000000
     18524       528  TIP3      OH2             9.2545601451      -30.5225692681       32.2665334450  TIP3      392             0.0000000000
     18525       528  TIP3      H1              8.9129426692      -29.9175564421       31.5758692020  TIP3      392             0.0000000000
     18526       528  TIP3      H2              8.4828228340      -30.4634841563       32.8635720666  TIP3      392             0.0000000000
     18527       529  TIP3      OH2            15.9750924759      -20.8772023843       26.1011021667  TIP3      393             0.0000000000
     18528       529  TIP3      H1             15.9836262961      -20.6623113193       25.1538295402  TIP3      393             0.0000000000
     18529       529  TIP3      H2             15.7588558051      -19.9926958685       26.4745427972  TIP3      393             0.0000000000
     18530       530  TIP3      OH2            11.3100125410      -22.6078089942       32.3473121294  TIP3      394             0.0000000000
     18531       530  TIP3      H1             10.7249810316      -21.8758858890       32.6251485381  TIP3      394             0.0000000000
     18532       530  TIP3      H2             12.0732757875      -22.0822798108       32.0210997534  TIP3      394             0.0000000000
     18533       531  TIP3      OH2            19.7744043866      -29.2112916355       29.1301772963  TIP3      395             0.0000000000
     18534       531  TIP3      H1             19.8878682350      -30.1147171863       29.4587434009  TIP3      395             0.0000000000
     18535       531  TIP3      H2             20.2395133123      -28.6954469227       29.8190938495  TIP3      395             0.0000000000
     18536       532  TIP3      OH2             8.7391970600      -28.4277475521       30.2941381689  TIP3      396             0.0000000000
     18537       532  TIP3      H1              9.3278357059      -27.8120037315       30.8074226385  TIP3      396             0.0000000000
     18538       532  TIP3      H2              9.3185367205      -28.6969529210       29.5418040784  TIP3      396             0.0000000000
     18539       533  TIP3      OH2            10.0145045130      -20.4596663768       33.2283563023  TIP3      397             0.0000000000
     18540       533  TIP3      H1              9.7700250431      -19.8493693009       32.5179315688  TIP3      397             0.0000000000
     18541       533  TIP3      H2              9.1709740841      -20.5151963676       33.7479956833  TIP3      397             0.0000000000
     18542       534  TIP3      OH2             5.5387437719      -20.7840561119       23.9232191305  TIP3      398             0.0000000000
     18543       534  TIP3      H1              5.5614161333      -21.2649366349       23.0571971604  TIP3      398             0.0000000000
     18544       534  TIP3      H2              6.3190071994      -21.1324741509       24.3695100697  TIP3      398             0.0000000000
     18545       535  TIP3      OH2            19.6462643505      -19.4914147064       30.7905154708  TIP3      399             0.0000000000
     18546       535  TIP3      H1             18.7343519386      -19.1652478227       30.9809477372  TIP3      399             0.0000000000
     18547       535  TIP3      H2             19.9531009033      -18.7631798157       30.2384891324  TIP3      399             0.0000000000
     18548       536  TIP3      OH2            19.6924217231      -30.4793614697       32.5686036434  TIP3      400             0.0000000000
     18549       536  TIP3      H1             18.9577303394      -30.4077718035       31.9242230828  TIP3      400             0.0000000000
     18550       536  TIP3      H2             20.4759695330      -30.4177180481       31.9803766535  TIP3      400             0.0000000000
     18551       537  TIP3      OH2            13.2025681849      -32.4123603747       29.5279493406  TIP3      401             0.0000000000
     18552       537  TIP3      H1             13.0239643869      -33.3263864408       29.7764438605  TIP3      401             0.0000000000
     18553       537  TIP3      H2             12.3441606206      -31.9717078213       29.7375159338  TIP3      401             0.0000000000
     18554       538  TIP3      OH2            18.0450243099      -17.7640969746       27.4621321469  TIP3      402             0.0000000000
     18555       538  TIP3      H1             18.2920366255      -18.5442543945       26.9099923725  TIP3      402             0.0000000000
     18556       538  TIP3      H2             18.8572318519      -17.2104755852       27.3263639969  TIP3      402             0.0000000000
     18557       539  TIP3      OH2            18.8721275381      -19.8710587676       25.9219937431  TIP3      403             0.0000000000
     18558       539  TIP3      H1             18.8966959331      -20.4756741513       25.1470083183  TIP3      403             0.0000000000
     18559       539  TIP3      H2             18.8455861073      -20.5305028004       26.6378509547  TIP3      403             0.0000000000
     18560       540  TIP3      OH2            20.4714533891      -20.9979743255       34.5305325235  TIP3      404             0.0000000000
     18561       540  TIP3      H1             20.5715856980      -21.6163245323       33.7694675748  TIP3      404             0.0000000000
     18562       540  TIP3      H2             20.7137862749      -20.1489033541       34.1074967891  TIP3      404             0.0000000000
     18563       541  TIP3      OH2            15.4410004765      -23.9745498050       24.6257639047  TIP3      405             0.0000000000
     18564       541  TIP3      H1             14.9062173409      -23.2180080228       24.3296356164  TIP3      405             0.0000000000
     18565       541  TIP3      H2             16.1143165642      -23.9831853910       23.9305815052  TIP3      405             0.0000000000
     18566       542  TIP3      OH2            15.8302499543      -26.1664481061       21.6132823167  TIP3      406             0.0000000000
     18567       542  TIP3      H1             16.5316555625      -25.5521498769       21.8640478651  TIP3      406             0.0000000000
     18568       542  TIP3      H2             16.1359682060      -26.5839556702       20.7973560256  TIP3      406             0.0000000000
     18569       543  TIP3      OH2            22.4206841074      -24.4482500552       32.6874720631  TIP3      407             0.0000000000
     18570       543  TIP3      H1             21.8437706453      -23.6569679627       32.5778052120  TIP3      407             0.0000000000
     18571       543  TIP3      H2             23.1414120309      -24.2434219839       32.0554744155  TIP3      407             0.0000000000
     18572       544  TIP3      OH2            18.7158017461      -24.5608282700       25.4902144926  TIP3      408             0.0000000000
     18573       544  TIP3      H1             18.0856843045      -24.1673822230       26.1366872067  TIP3      408             0.0000000000
     18574       544  TIP3      H2             19.5278841649      -24.6385771175       26.0228832947  TIP3      408             0.0000000000
     18575       545  TIP3      OH2            18.7837709510      -25.4622050108       34.3311440290  TIP3      409             0.0000000000
     18576       545  TIP3      H1             18.8528833262      -24.5631172177       34.6877190613  TIP3      409             0.0000000000
     18577       545  TIP3      H2             17.9881464598      -25.3530314074       33.7575952997  TIP3      409             0.0000000000
     18578       546  TIP3      OH2             9.8169684179      -23.3564263019       27.2610229855  TIP3      410             0.0000000000
     18579       546  TIP3      H1              9.5701284583      -23.6147786662       26.3475169963  TIP3      410             0.0000000000
     18580       546  TIP3      H2             10.4819406612      -24.0402725748       27.4854937687  TIP3      410             0.0000000000
     18581       547  TIP3      OH2            11.5267936479      -19.9510333829       29.9750392130  TIP3      411             0.0000000000
     18582       547  TIP3      H1             11.6338873216      -20.2327641406       29.0497049636  TIP3      411             0.0000000000
     18583       547  TIP3      H2             12.2603339304      -20.3922965875       30.4610173451  TIP3      411             0.0000000000
     18584       548  TIP3      OH2            10.5411426381      -24.6357474114       30.7229469291  TIP3      412             0.0000000000
     18585       548  TIP3      H1             10.8536014989      -24.5883353131       29.7927749646  TIP3      412             0.0000000000
     18586       548  TIP3      H2             10.7629083743      -23.7499819515       31.0893774250  TIP3      412             0.0000000000
     18587       549  TIP3      OH2            17.1872061390      -18.7958221577       31.5948989281  TIP3      413             0.0000000000
     18588       549  TIP3      H1             16.6965546032      -18.2010355822       32.1794568038  TIP3      413             0.0000000000
     18589       549  TIP3      H2             16.8845210762      -19.6765197111       31.9048903481  TIP3      413             0.0000000000
     18590       550  TIP3      OH2            11.6738333810      -19.9824298855       35.2706157406  TIP3      414             0.0000000000
     18591       550  TIP3      H1             10.9828010364      -19.4563818236       35.7381496248  TIP3      414             0.0000000000
     18592       550  TIP3      H2             11.1838818141      -20.1677242080       34.4367117784  TIP3      414             0.0000000000
     18593       551  TIP3      OH2            17.8918425336      -24.6327310174       22.9230359869  TIP3      415             0.0000000000
     18594       551  TIP3      H1             18.1952589062      -24.6845422095       23.8638010180  TIP3      415             0.0000000000
     18595       551  TIP3      H2             18.2615024675      -23.7717187249       22.6482852958  TIP3      415             0.0000000000
     18596       552  TIP3      OH2             8.6393437544      -23.8183656117       34.1354043699  TIP3      416             0.0000000000
     18597       552  TIP3      H1              9.0996500907      -23.2566913503       34.7773156768  TIP3      416             0.0000000000
     18598       552  TIP3      H2              7.8362396848      -24.0122839641       34.6472958864  TIP3      416             0.0000000000
     18599       553  TIP3      OH2            15.5798884762      -18.2728303008       26.5928272196  TIP3      417             0.0000000000
     18600       553  TIP3      H1             16.5087223299      -18.1080144753       26.8798192081  TIP3      417             0.0000000000
     18601       553  TIP3      H2             15.1661145201      -17.3970902999       26.6325752983  TIP3      417             0.0000000000
     18602       554  TIP3      OH2             9.7775076842      -18.3233760137       36.2581742098  TIP3      418             0.0000000000
     18603       554  TIP3      H1              9.6155156784      -17.9020604365       35.3820614337  TIP3      418             0.0000000000
     18604       554  TIP3      H2              8.8567595129      -18.5108591390       36.5533617487  TIP3      418             0.0000000000
     18605       555  TIP3      OH2            21.4147897674      -32.8818679558       23.0622361630  TIP3      419             0.0000000000
     18606       555  TIP3      H1             20.4437936003      -32.7804923773       23.0771368700  TIP3      419             0.0000000000
     18607       555  TIP3      H2             21.6525599579      -32.2533647975       22.3447986893  TIP3      419             0.0000000000
     18608       556  TIP3      OH2             9.4615701028      -24.3935425647       24.7555742732  TIP3      420             0.0000000000
     18609       556  TIP3      H1              9.1275369922      -23.6176011979       24.2368874044  TIP3      420             0.0000000000
     18610       556  TIP3      H2              8.7472057882      -25.0303066548       24.6315707349  TIP3      420             0.0000000000
     18611       557  TIP3      OH2            23.2555958829      -18.6675532852       21.9145281171  TIP3      421             0.0000000000
     18612       557  TIP3      H1             23.2894114995      -17.7767225942       21.5051216344  TIP3      421             0.0000000000
     18613       557  TIP3      H2             23.2838139773      -19.2708840187       21.1533821195  TIP3      421             0.0000000000
     18614       558  TIP3      OH2             5.5238797729      -21.5611677716       33.5420046330  TIP3      422             0.0000000000
     18615       558  TIP3      H1              5.1210975562      -21.4684578345       32.6703371314  TIP3      422             0.0000000000
     18616       558  TIP3      H2              5.8419148557      -22.4771014566       33.4944325046  TIP3      422             0.0000000000
     18617       559  TIP3      OH2             5.5772723176      -19.3098912994       30.3549611247  TIP3      423             0.0000000000
     18618       559  TIP3      H1              6.5011340300      -19.4722602633       30.1126539416  TIP3      423             0.0000000000
     18619       559  TIP3      H2              5.6600801191      -18.5217440230       30.9203518870  TIP3      423             0.0000000000
     18620       560  TIP3      OH2            23.3615709490      -18.7876017167       36.2501042188  TIP3      424             0.0000000000
     18621       560  TIP3      H1             23.1607383224      -19.6974217664       35.9713583755  TIP3      424             0.0000000000
     18622       560  TIP3      H2             22.4825026183      -18.5249652258       36.6150227961  TIP3      424             0.0000000000
     18623       561  TIP3      OH2            14.1408267111      -18.9634767311       34.9993499855  TIP3      425             0.0000000000
     18624       561  TIP3      H1             14.4243002561      -18.4048587158       35.7411823635  TIP3      425             0.0000000000
     18625       561  TIP3      H2             13.2430271112      -19.2557745233       35.2743358424  TIP3      425             0.0000000000
     18626       562  TIP3      OH2            14.3865487798      -15.2727073328       24.6642357959  TIP3      426             0.0000000000
     18627       562  TIP3      H1             14.6598069443      -15.0333526161       23.7520375471  TIP3      426             0.0000000000
     18628       562  TIP3      H2             14.7446212659      -14.4978456237       25.1267857401  TIP3      426             0.0000000000
     18629       563  TIP3      OH2             8.2947295811      -16.2522010209       26.7875542320  TIP3      427             0.0000000000
     18630       563  TIP3      H1              8.5575228451      -16.5792552995       27.6779550720  TIP3      427             0.0000000000
     18631       563  TIP3      H2              7.5561939051      -16.8673632746       26.5900922575  TIP3      427             0.0000000000
     18632       564  TIP3      OH2            17.6020153926      -16.7385756942       21.5624062231  TIP3      428             0.0000000000
     18633       564  TIP3      H1             17.5042548960      -17.6656164405       21.2718449130  TIP3      428             0.0000000000
     18634       564  TIP3      H2             18.5565514977      -16.7490398805       21.7199495606  TIP3      428             0.0000000000
     18635       565  TIP3      OH2            17.5963965926      -16.1478759654       24.7326117398  TIP3      429             0.0000000000
     18636       565  TIP3      H1             16.8678335860      -16.0559029204       25.3531427389  TIP3      429             0.0000000000
     18637       565  TIP3      H2             17.7897951044      -17.1003532176       24.7568947661  TIP3      429             0.0000000000
     18638       566  TIP3      OH2            20.3388037214      -26.7822596932       36.2935027602  TIP3      430             0.0000000000
     18639       566  TIP3      H1             19.8601467069      -26.2686714113       35.6083648559  TIP3      430             0.0000000000
     18640       566  TIP3      H2             20.2909020577      -27.6805545880       35.9254924193  TIP3      430             0.0000000000
     18641       567  TIP3      OH2             7.7522019708      -20.4697531905       34.6457175559  TIP3      431             0.0000000000
     18642       567  TIP3      H1              7.8216014534      -20.9188653960       35.5193326061  TIP3      431             0.0000000000
     18643       567  TIP3      H2              6.8914763247      -20.7985133767       34.3109592696  TIP3      431             0.0000000000
     18644       568  TIP3      OH2            10.7889391865      -31.6725429560       30.2404562971  TIP3      432             0.0000000000
     18645       568  TIP3      H1              9.9727225924      -31.8061403842       29.7065923769  TIP3      432             0.0000000000
     18646       568  TIP3      H2             10.4180583350      -31.1912081074       31.0051010000  TIP3      432             0.0000000000
     18647       569  TIP3      OH2            14.8583051720      -32.3110025955       34.6029156910  TIP3      433             0.0000000000
     18648       569  TIP3      H1             15.6003838331      -32.7615239874       34.1872870191  TIP3      433             0.0000000000
     18649       569  TIP3      H2             14.2888667654      -32.1395289493       33.8384955878  TIP3      433             0.0000000000
     18650       570  TIP3      OH2            17.6039818081      -28.1399066835       34.9163793565  TIP3      434             0.0000000000
     18651       570  TIP3      H1             17.0425644777      -28.3991722451       35.6990789985  TIP3      434             0.0000000000
     18652       570  TIP3      H2             17.6409822914      -27.1712043222       34.9804378917  TIP3      434             0.0000000000
     18653       571  TIP3      OH2            10.2708838666      -26.9923986872       31.9107011208  TIP3      435             0.0000000000
     18654       571  TIP3      H1              9.8857237785      -26.8001984476       32.7847062176  TIP3      435             0.0000000000
     18655       571  TIP3      H2             10.2642726774      -26.0809936693       31.5203515707  TIP3      435             0.0000000000
     18656       572  TIP3      OH2            10.5949077128      -27.0957722762       26.3641330301  TIP3      436             0.0000000000
     18657       572  TIP3      H1              9.6505087659      -26.8809021796       26.2786928560  TIP3      436             0.0000000000
     18658       572  TIP3      H2             10.9397093333      -26.7230607587       25.5450311618  TIP3      436             0.0000000000
     18659       573  TIP3      OH2            16.1545540714      -26.7650753022       25.1910108585  TIP3      437             0.0000000000
     18660       573  TIP3      H1             15.9503318645      -25.8232630632       25.0048201302  TIP3      437             0.0000000000
     18661       573  TIP3      H2             16.7751470300      -27.0358620617       24.4967299964  TIP3      437             0.0000000000
     18662       574  TIP3      OH2            15.1901612926      -26.1443769719       36.5757483175  TIP3      438             0.0000000000
     18663       574  TIP3      H1             14.5150603210      -26.7932025547       36.8722414167  TIP3      438             0.0000000000
     18664       574  TIP3      H2             15.9187086684      -26.3470830788       37.1969300758  TIP3      438             0.0000000000
     18665       575  TIP3      OH2            16.9551155350      -26.9226171834       28.1593721491  TIP3      439             0.0000000000
     18666       575  TIP3      H1             16.7760648270      -25.9885228721       27.9531739760  TIP3      439             0.0000000000
     18667       575  TIP3      H2             16.8449041842      -27.2952559575       27.2705189884  TIP3      439             0.0000000000
     18668       576  TIP3      OH2             7.6741489103      -27.1157759126       33.1573157525  TIP3      440             0.0000000000
     18669       576  TIP3      H1              7.8782060424      -26.8912854468       34.0697830205  TIP3      440             0.0000000000
     18670       576  TIP3      H2              7.3496217796      -28.0352769777       33.2179030805  TIP3      440             0.0000000000
     18671       577  TIP3      OH2             5.3188130027      -29.4171583140       28.1411861036  TIP3      441             0.0000000000
     18672       577  TIP3      H1              6.0652168219      -29.4279824630       28.7733039574  TIP3      441             0.0000000000
     18673       577  TIP3      H2              5.6264146373      -28.8674587581       27.4036209280  TIP3      441             0.0000000000
     18674       578  TIP3      OH2             6.3090254707      -28.9764432093       23.3452858442  TIP3      442             0.0000000000
     18675       578  TIP3      H1              6.7198829679      -28.7490294652       22.5040086982  TIP3      442             0.0000000000
     18676       578  TIP3      H2              5.5546435730      -28.3536151842       23.3896779952  TIP3      442             0.0000000000
     18677       579  TIP3      OH2            16.5549573963      -25.4180729342       32.7541168326  TIP3      443             0.0000000000
     18678       579  TIP3      H1             16.9651532192      -26.1725694965       32.2621961670  TIP3      443             0.0000000000
     18679       579  TIP3      H2             15.7961037029      -25.8575823980       33.2170442424  TIP3      443             0.0000000000
     18680       580  TIP3      OH2            13.0722022247      -29.2616170467       27.8140791827  TIP3      444             0.0000000000
     18681       580  TIP3      H1             12.0973754103      -29.2767317349       27.7871179316  TIP3      444             0.0000000000
     18682       580  TIP3      H2             13.2477766900      -29.8553684081       28.5536218778  TIP3      444             0.0000000000
     18683       581  TIP3      OH2             7.8478931201      -27.1887801696       26.0574678037  TIP3      445             0.0000000000
     18684       581  TIP3      H1              6.9499475906      -27.0561553785       25.6799760373  TIP3      445             0.0000000000
     18685       581  TIP3      H2              7.9549963589      -28.1445962346       25.9244718310  TIP3      445             0.0000000000
     18686       582  TIP3      OH2            17.4748664165      -30.0424944877       30.9335781338  TIP3      446             0.0000000000
     18687       582  TIP3      H1             16.7710174798      -29.7105023353       31.5223034252  TIP3      446             0.0000000000
     18688       582  TIP3      H2             16.9275868443      -30.4670413161       30.2376301337  TIP3      446             0.0000000000
     18689       583  TIP3      OH2            20.3330787471      -14.5651356420       37.5147881174  TIP3      447             0.0000000000
     18690       583  TIP3      H1             20.7654747781      -14.2180642986       36.7168458380  TIP3      447             0.0000000000
     18691       583  TIP3      H2             20.9803749912      -14.3362386581       38.2045386058  TIP3      447             0.0000000000
     18692       584  TIP3      OH2             8.1815472320      -21.9638632722       36.9535276580  TIP3      448             0.0000000000
     18693       584  TIP3      H1              8.8583836447      -21.9222775068       37.6637144341  TIP3      448             0.0000000000
     18694       584  TIP3      H2              7.3669680729      -22.1075086419       37.4852402395  TIP3      448             0.0000000000
     18695       585  TIP3      OH2            14.3626247956      -26.6317731858       29.3730904548  TIP3      449             0.0000000000
     18696       585  TIP3      H1             15.0240736954      -27.1398760337       28.8830445342  TIP3      449             0.0000000000
     18697       585  TIP3      H2             13.9627293134      -27.3387666317       29.8950306791  TIP3      449             0.0000000000
     18698       586  TIP3      OH2             9.0711443863      -30.2667498436       25.7417314262  TIP3      450             0.0000000000
     18699       586  TIP3      H1              8.4244164548      -30.9611703388       25.9635746669  TIP3      450             0.0000000000
     18700       586  TIP3      H2              9.8639858259      -30.8167333736       25.5846823380  TIP3      450             0.0000000000
     18701       587  TIP3      OH2            12.4841982792      -28.3988536878       31.6285847210  TIP3      451             0.0000000000
     18702       587  TIP3      H1             11.7110710707      -27.7830005995       31.6599162356  TIP3      451             0.0000000000
     18703       587  TIP3      H2             13.1139765608      -27.9774442438       32.2338219934  TIP3      451             0.0000000000
     18704       588  TIP3      OH2            13.2274859445      -21.5571078140       24.0956275851  TIP3      452             0.0000000000
     18705       588  TIP3      H1             12.8454583275      -22.4163716133       23.8281645713  TIP3      452             0.0000000000
     18706       588  TIP3      H2             12.9891307537      -21.5264400144       25.0553142832  TIP3      452             0.0000000000
     18707       589  TIP3      OH2            20.8593706917      -22.2952679788       32.2816920049  TIP3      453             0.0000000000
     18708       589  TIP3      H1             21.3653247978      -21.6330941167       31.7472511966  TIP3      453             0.0000000000
     18709       589  TIP3      H2             20.2451893257      -22.6191164754       31.5921044994  TIP3      453             0.0000000000
     18710       590  TIP3      OH2            14.3140189094      -21.8933712907       34.4064624170  TIP3      454             0.0000000000
     18711       590  TIP3      H1             14.6989856908      -21.9568300430       35.2888363634  TIP3      454             0.0000000000
     18712       590  TIP3      H2             13.9800239328      -20.9805795464       34.3773199561  TIP3      454             0.0000000000
     18713       591  TIP3      OH2            18.2409142822      -27.7837453995       23.5078119908  TIP3      455             0.0000000000
     18714       591  TIP3      H1             18.8239649849      -27.4690675329       24.2250474231  TIP3      455             0.0000000000
     18715       591  TIP3      H2             18.1242136844      -26.9920071812       22.9588056785  TIP3      455             0.0000000000
     18716       592  TIP3      OH2             8.6769828811      -22.4629629634       29.6610025751  TIP3      456             0.0000000000
     18717       592  TIP3      H1              9.0642535514      -22.6525548492       28.7820683896  TIP3      456             0.0000000000
     18718       592  TIP3      H2              8.6636816646      -23.3447488573       30.0717612887  TIP3      456             0.0000000000
     18719       593  TIP3      OH2            15.2688856830      -20.3473771262       22.9657339507  TIP3      457             0.0000000000
     18720       593  TIP3      H1             14.9204010659      -19.9996356419       22.1289137453  TIP3      457             0.0000000000
     18721       593  TIP3      H2             14.4707451852      -20.7814824183       23.3304761518  TIP3      457             0.0000000000
     18722       594  TIP3      OH2             5.6813425581      -24.4537036166       34.9026978067  TIP3      458             0.0000000000
     18723       594  TIP3      H1              5.5907736333      -25.0867928709       35.6363095787  TIP3      458             0.0000000000
     18724       594  TIP3      H2              4.9755761010      -24.7510917027       34.3036715642  TIP3      458             0.0000000000
     18725       595  TIP3      OH2            12.1434072648      -24.4858581504       36.2236363918  TIP3      459             0.0000000000
     18726       595  TIP3      H1             11.8183193536      -25.3674267079       35.9848002832  TIP3      459             0.0000000000
     18727       595  TIP3      H2             12.7393857032      -24.3296400098       35.4663122799  TIP3      459             0.0000000000
     18728       596  TIP3      OH2            17.4754325443      -19.3176667440       35.2255238553  TIP3      460             0.0000000000
     18729       596  TIP3      H1             16.7943225991      -18.9911287937       34.6187719439  TIP3      460             0.0000000000
     18730       596  TIP3      H2             17.1750486284      -18.9338245265       36.0701684060  TIP3      460             0.0000000000
     18731       597  TIP3      OH2            22.3962171733      -26.6430863425       23.1775521259  TIP3      461             0.0000000000
     18732       597  TIP3      H1             23.0410634850      -26.7912665607       22.4684731798  TIP3      461             0.0000000000
     18733       597  TIP3      H2             22.4287805927      -25.6716050746       23.1982457540  TIP3      461             0.0000000000
     18734       598  TIP3      OH2            23.0588340537      -21.4673934149       35.6923732732  TIP3      462             0.0000000000
     18735       598  TIP3      H1             22.1932625967      -21.4036435242       35.2370584762  TIP3      462             0.0000000000
     18736       598  TIP3      H2             23.6870296874      -21.5567507614       34.9361705342  TIP3      462             0.0000000000
     18737       599  TIP3      OH2            21.0626851767      -18.9548459497       23.6871403976  TIP3      463             0.0000000000
     18738       599  TIP3      H1             20.6812370816      -19.8336227924       23.5568490572  TIP3      463             0.0000000000
     18739       599  TIP3      H2             21.7961569847      -18.9760115201       23.0499730280  TIP3      463             0.0000000000
     18740       600  TIP3      OH2            18.7183530563      -23.5297880473       30.6750144674  TIP3      464             0.0000000000
     18741       600  TIP3      H1             17.7955733369      -23.8235045465       30.6191862509  TIP3      464             0.0000000000
     18742       600  TIP3      H2             19.1382137280      -24.1404658493       30.0380562684  TIP3      464             0.0000000000
     18743       601  TIP3      OH2            10.9108615336      -19.5797048597       27.3079779370  TIP3      465             0.0000000000
     18744       601  TIP3      H1             11.4303417436      -18.9896425260       26.7487650062  TIP3      465             0.0000000000
     18745       601  TIP3      H2              9.9982277167      -19.3475930015       27.0744986519  TIP3      465             0.0000000000
     18746       602  TIP3      OH2            12.3955725320      -21.6717086776       26.5564433430  TIP3      466             0.0000000000
     18747       602  TIP3      H1             11.7593009332      -20.9741840829       26.8146319996  TIP3      466             0.0000000000
     18748       602  TIP3      H2             12.1083495829      -22.4162009458       27.0935004296  TIP3      466             0.0000000000
     18749       603  TIP3      OH2            12.8084467098      -17.1542607428       33.3147945073  TIP3      467             0.0000000000
     18750       603  TIP3      H1             13.4894204819      -16.5615772236       32.9563419545  TIP3      467             0.0000000000
     18751       603  TIP3      H2             13.3170975780      -17.6530797044       33.9828909119  TIP3      467             0.0000000000
     18752       604  TIP3      OH2            10.6104469235      -16.3157985033       25.5809908036  TIP3      468             0.0000000000
     18753       604  TIP3      H1              9.7126851310      -16.5199240163       25.9355711088  TIP3      468             0.0000000000
     18754       604  TIP3      H2             11.0798912470      -16.1325588730       26.4067566370  TIP3      468             0.0000000000
     18755       605  TIP3      OH2            16.0207257944      -21.3313729200       32.3584177516  TIP3      469             0.0000000000
     18756       605  TIP3      H1             15.5792944371      -21.7192214509       33.1464270008  TIP3      469             0.0000000000
     18757       605  TIP3      H2             16.3296152394      -22.1229054586       31.8882498140  TIP3      469             0.0000000000
     18758       606  TIP3      OH2            19.3869618117      -16.8739054362       34.5482371471  TIP3      470             0.0000000000
     18759       606  TIP3      H1             18.4520744555      -17.1475533909       34.5837956136  TIP3      470             0.0000000000
     18760       606  TIP3      H2             19.3472195926      -16.1970210655       33.8365772756  TIP3      470             0.0000000000
     18761       607  TIP3      OH2            23.4633593214      -15.4770515162       22.0247633608  TIP3      471             0.0000000000
     18762       607  TIP3      H1             23.2486779476      -15.4822918120       21.0526154986  TIP3      471             0.0000000000
     18763       607  TIP3      H2             22.6873808578      -14.9709687405       22.3313212342  TIP3      471             0.0000000000
     18764       608  TIP3      OH2             6.8455863844      -29.6879935306       33.7110256873  TIP3      472             0.0000000000
     18765       608  TIP3      H1              5.9945107027      -29.4493420676       33.2998649002  TIP3      472             0.0000000000
     18766       608  TIP3      H2              6.6565650179      -29.6341832737       34.6691216177  TIP3      472             0.0000000000
     18767       609  TIP3      OH2            19.2181260613      -21.8960929237       24.1211083046  TIP3      473             0.0000000000
     18768       609  TIP3      H1             19.6200359263      -22.7671716539       24.2113761846  TIP3      473             0.0000000000
     18769       609  TIP3      H2             19.6257946401      -21.5739418876       23.2763579306  TIP3      473             0.0000000000
     18770       610  TIP3      OH2             6.9138133689      -17.6211050296       32.7866269841  TIP3      474             0.0000000000
     18771       610  TIP3      H1              7.4424003425      -18.3993544307       33.0167317315  TIP3      474             0.0000000000
     18772       610  TIP3      H2              7.1492189489      -17.0102461805       33.5079017774  TIP3      474             0.0000000000
     18773       611  TIP3      OH2            11.5260219967      -19.8303608246       22.7441003307  TIP3      475             0.0000000000
     18774       611  TIP3      H1             12.0080912309      -20.3862658269       23.3850884270  TIP3      475             0.0000000000
     18775       611  TIP3      H2             12.0733687050      -20.0293333475       21.9516407328  TIP3      475             0.0000000000
     18776       612  TIP3      OH2             8.4277820823      -22.4444450730       23.2538309893  TIP3      476             0.0000000000
     18777       612  TIP3      H1              7.5385332170      -22.6162586259       22.8590352065  TIP3      476             0.0000000000
     18778       612  TIP3      H2              8.5595041128      -21.5565010515       22.8524723023  TIP3      476             0.0000000000
     18779       613  TIP3      OH2            15.7673364369      -29.7174604675       33.4613652023  TIP3      477             0.0000000000
     18780       613  TIP3      H1             16.6022019500      -29.4407125690       33.8800480086  TIP3      477             0.0000000000
     18781       613  TIP3      H2             15.4821479423      -30.3662592874       34.1273971837  TIP3      477             0.0000000000
     18782       614  TIP3      OH2            16.6218973204      -30.0608529121       24.9949954291  TIP3      478             0.0000000000
     18783       614  TIP3      H1             16.9692752477      -29.4695620881       24.3138608365  TIP3      478             0.0000000000
     18784       614  TIP3      H2             17.2259473320      -29.8213004247       25.7351200627  TIP3      478             0.0000000000
     18785       615  TIP3      OH2            14.2959227457      -17.5775087252       22.7811461847  TIP3      479             0.0000000000
     18786       615  TIP3      H1             13.4705067096      -18.0736449845       22.9206030970  TIP3      479             0.0000000000
     18787       615  TIP3      H2             14.6192231613      -17.4646525198       23.6880147921  TIP3      479             0.0000000000
     18788       616  TIP3      OH2            14.1721411603      -28.6288570902       25.3996529339  TIP3      480             0.0000000000
     18789       616  TIP3      H1             14.8089068806      -27.9019400426       25.2615310132  TIP3      480             0.0000000000
     18790       616  TIP3      H2             13.9258098620      -28.5897944537       26.3406838282  TIP3      480             0.0000000000
     18791       617  TIP3      OH2            14.9473609774      -27.0844986111       33.9781629340  TIP3      481             0.0000000000
     18792       617  TIP3      H1             15.1595313526      -26.8490131494       34.9065913098  TIP3      481             0.0000000000
     18793       617  TIP3      H2             15.2418571408      -28.0173204547       33.9013412362  TIP3      481             0.0000000000
     18794       618  TIP3      OH2            14.7811137585      -31.8713284690       25.5537373107  TIP3      482             0.0000000000
     18795       618  TIP3      H1             14.5368139659      -31.3785849234       26.3514872289  TIP3      482             0.0000000000
     18796       618  TIP3      H2             15.4381006160      -31.2201371951       25.1875975080  TIP3      482             0.0000000000
     18797       619  TIP3      OH2            11.5865857552      -16.7546596742       23.2134980030  TIP3      483             0.0000000000
     18798       619  TIP3      H1             12.4144536380      -16.2608591646       23.1902479589  TIP3      483             0.0000000000
     18799       619  TIP3      H2             11.2938807457      -16.6286597595       24.1393425442  TIP3      483             0.0000000000
     18800       620  TIP3      OH2            20.0527539904      -29.3658008226       35.1777404983  TIP3      484             0.0000000000
     18801       620  TIP3      H1             19.1647375502      -28.9648069116       35.3036560995  TIP3      484             0.0000000000
     18802       620  TIP3      H2             19.9286201830      -29.7582449085       34.2838480766  TIP3      484             0.0000000000
     18803       621  TIP3      OH2            19.3291121349      -25.6612813883       29.0119249453  TIP3      485             0.0000000000
     18804       621  TIP3      H1             18.6036333282      -26.3066622295       28.9469573484  TIP3      485             0.0000000000
     18805       621  TIP3      H2             20.0041760356      -26.1724780617       29.5165611885  TIP3      485             0.0000000000
     18806       622  TIP3      OH2             9.0028908330      -20.2287835811       21.8236767140  TIP3      486             0.0000000000
     18807       622  TIP3      H1              9.9035550537      -20.2896889624       22.2094922852  TIP3      486             0.0000000000
     18808       622  TIP3      H2              9.0280797630      -20.8251552496       21.0505433475  TIP3      486             0.0000000000
     18809       623  TIP3      OH2            19.9447170424      -16.3297670354       30.6452123811  TIP3      487             0.0000000000
     18810       623  TIP3      H1             19.7098539663      -15.7810779885       29.8711739560  TIP3      487             0.0000000000
     18811       623  TIP3      H2             20.9096985230      -16.4356488084       30.5007104581  TIP3      487             0.0000000000
     18812       624  TIP3      OH2             8.2696648978      -32.1944283952       29.3384739281  TIP3      488             0.0000000000
     18813       624  TIP3      H1              8.0241974790      -32.2987960568       28.3860250598  TIP3      488             0.0000000000
     18814       624  TIP3      H2              7.8995693285      -33.0137184591       29.7364856509  TIP3      488             0.0000000000
     18815       625  TIP3      OH2             6.6366952721      -18.2799236530       26.2460210518  TIP3      489             0.0000000000
     18816       625  TIP3      H1              5.8795177679      -17.6788232686       26.2898191189  TIP3      489             0.0000000000
     18817       625  TIP3      H2              6.6454967055      -18.4789655653       25.2933350864  TIP3      489             0.0000000000
     18818       626  TIP3      OH2             5.7532483933      -15.4056416992       37.1665153869  TIP3      490             0.0000000000
     18819       626  TIP3      H1              6.3609223056      -15.5220284891       37.9327192179  TIP3      490             0.0000000000
     18820       626  TIP3      H2              5.4440417521      -16.3251026899       37.0873332113  TIP3      490             0.0000000000
     18821       627  TIP3      OH2            10.7787531487      -16.5580706368       38.0394058132  TIP3      491             0.0000000000
     18822       627  TIP3      H1             11.6569300468      -16.9602991092       38.1432383784  TIP3      491             0.0000000000
     18823       627  TIP3      H2             10.4213053825      -17.0826487361       37.2913823280  TIP3      491             0.0000000000
     18824       628  TIP3      OH2            16.8971005114      -17.8406064745       37.5113877787  TIP3      492             0.0000000000
     18825       628  TIP3      H1             16.5703318810      -18.7484902063       37.7325597750  TIP3      492             0.0000000000
     18826       628  TIP3      H2             17.7957280378      -17.8570106186       37.9218796966  TIP3      492             0.0000000000
     18827       629  TIP3      OH2             5.7464935068      -21.8737125834       38.1442958035  TIP3      493             0.0000000000
     18828       629  TIP3      H1              5.0834805928      -22.5095726669       38.4907319678  TIP3      493             0.0000000000
     18829       629  TIP3      H2              5.2659092177      -21.5347369225       37.3536806108  TIP3      493             0.0000000000
     18830       630  TIP3      OH2            12.4326385825      -21.8724937003       37.2360619724  TIP3      494             0.0000000000
     18831       630  TIP3      H1             12.4179896015      -21.3319397188       36.4222735108  TIP3      494             0.0000000000
     18832       630  TIP3      H2             12.2172280800      -22.7764868363       36.9050218560  TIP3      494             0.0000000000
     18833       631  TIP3      OH2            18.0268248756      -22.0406647439       35.1784955734  TIP3      495             0.0000000000
     18834       631  TIP3      H1             18.9135990549      -21.6052484755       35.1343245307  TIP3      495             0.0000000000
     18835       631  TIP3      H2             17.4726388027      -21.2451011116       35.0628954669  TIP3      495             0.0000000000
     18836       632  TIP3      OH2             7.1600167089      -25.1756406032       37.6240102455  TIP3      496             0.0000000000
     18837       632  TIP3      H1              7.7218638302      -25.8123769245       38.0761201554  TIP3      496             0.0000000000
     18838       632  TIP3      H2              7.3426520392      -24.3651247218       38.1352214976  TIP3      496             0.0000000000
     18839       633  TIP3      OH2            11.9458129540      -23.6775198799       22.8445297290  TIP3      497             0.0000000000
     18840       633  TIP3      H1             11.0804984350      -23.7607063212       23.2750617395  TIP3      497             0.0000000000
     18841       633  TIP3      H2             11.7223747178      -23.3685545823       21.9475029600  TIP3      497             0.0000000000
     18842       634  TIP3      OH2            10.5335862393      -25.7916273384       34.2948233181  TIP3      498             0.0000000000
     18843       634  TIP3      H1              9.9421786667      -25.0164117238       34.2498492181  TIP3      498             0.0000000000
     18844       634  TIP3      H2             11.3147082707      -25.4294574755       33.8187347990  TIP3      498             0.0000000000
     18845       635  TIP3      OH2            16.0734141099      -22.8615583542       38.1605188393  TIP3      499             0.0000000000
     18846       635  TIP3      H1             16.5611240361      -23.5753007623       37.7035959995  TIP3      499             0.0000000000
     18847       635  TIP3      H2             15.6919147510      -23.3111339984       38.9298006797  TIP3      499             0.0000000000
     18848       636  TIP3      OH2            11.6069266961      -27.9586562418       35.5439646630  TIP3      500             0.0000000000
     18849       636  TIP3      H1             11.5792222295      -28.6962700098       34.8787909138  TIP3      500             0.0000000000
     18850       636  TIP3      H2             11.1557819943      -27.2345781179       35.0605839720  TIP3      500             0.0000000000
     18851       637  TIP3      OH2            11.5305570288      -29.8374892383       33.5800456672  TIP3      501             0.0000000000
     18852       637  TIP3      H1             11.9741178628      -29.5884738477       32.7352514832  TIP3      501             0.0000000000
     18853       637  TIP3      H2             10.6415937464      -30.0234226935       33.2083024790  TIP3      501             0.0000000000
     18854       638  TIP3      OH2            12.8252914823      -24.5152543412       33.5004813360  TIP3      502             0.0000000000
     18855       638  TIP3      H1             13.7114943131      -24.3394931575       33.1642710647  TIP3      502             0.0000000000
     18856       638  TIP3      H2             12.3462766015      -23.7232538350       33.1641742598  TIP3      502             0.0000000000
     18857       639  TIP3      OH2            17.1130557633      -26.9281625248       38.5341334777  TIP3      503             0.0000000000
     18858       639  TIP3      H1             17.5013435548      -27.8122285640       38.6266104637  TIP3      503             0.0000000000
     18859       639  TIP3      H2             17.8443577239      -26.3512397252       38.7918998898  TIP3      503             0.0000000000
     18860       640  TIP3      OH2            18.7000256093      -23.7422584947       37.3412113242  TIP3      504             0.0000000000
     18861       640  TIP3      H1             18.2947308319      -23.1443565196       36.6752512283  TIP3      504             0.0000000000
     18862       640  TIP3      H2             19.5821095153      -23.8790945443       36.9526274988  TIP3      504             0.0000000000
     18863       641  TIP3      OH2             9.8941463821      -27.4175705385       37.9804597299  TIP3      505             0.0000000000
     18864       641  TIP3      H1              9.0723553202      -27.9516759020       37.9359184402  TIP3      505             0.0000000000
     18865       641  TIP3      H2             10.3619218690      -27.7096141587       37.1684071508  TIP3      505             0.0000000000
     18866       642  TIP3      OH2            12.2192985868      -32.3606325178       33.1813722059  TIP3      506             0.0000000000
     18867       642  TIP3      H1             12.0390785934      -31.4703971984       33.5598143215  TIP3      506             0.0000000000
     18868       642  TIP3      H2             11.3630802021      -32.5076346971       32.7572183979  TIP3      506             0.0000000000
     18869       643  TIP3      OH2            13.4324083428      -28.0595811830       37.5430992363  TIP3      507             0.0000000000
     18870       643  TIP3      H1             13.0036089491      -28.6252134345       38.2001826381  TIP3      507             0.0000000000
     18871       643  TIP3      H2             12.7968543073      -28.1249639590       36.7924652447  TIP3      507             0.0000000000
     18872       644  TIP3      OH2            15.8044414235      -28.9680675264       36.5933048276  TIP3      508             0.0000000000
     18873       644  TIP3      H1             14.8995533215      -28.8077401762       36.9327163672  TIP3      508             0.0000000000
     18874       644  TIP3      H2             16.1557795078      -29.6622084870       37.1776711682  TIP3      508             0.0000000000
     18875       645  TIP3      OH2            17.7646507594      -30.4890134582       38.0366910843  TIP3      509             0.0000000000
     18876       645  TIP3      H1             17.5582712253      -31.4325020442       37.8636882529  TIP3      509             0.0000000000
     18877       645  TIP3      H2             17.6809036622      -30.4378853303       39.0118472913  TIP3      509             0.0000000000
     18878       646  TIP3      OH2             7.6360776364      -29.4663561548       38.0808074464  TIP3      510             0.0000000000
     18879       646  TIP3      H1              7.5464423157      -30.1493284595       37.3713330062  TIP3      510             0.0000000000
     18880       646  TIP3      H2              7.7516745238      -30.0727976209       38.8469156294  TIP3      510             0.0000000000
     18881       647  TIP3      OH2            12.3554047911      -32.1905960080       36.0790979536  TIP3      511             0.0000000000
     18882       647  TIP3      H1             12.5836728942      -33.1269489677       36.2560460865  TIP3      511             0.0000000000
     18883       647  TIP3      H2             12.8347001214      -32.0768102825       35.2498635679  TIP3      511             0.0000000000
     18884       648  TIP3      OH2            13.1218277334      -31.4071932361       38.5803086581  TIP3      512             0.0000000000
     18885       648  TIP3      H1             12.8815851342      -31.7145512056       37.6808131416  TIP3      512             0.0000000000
     18886       648  TIP3      H2             12.3417791091      -30.8683115402       38.8184879763  TIP3      512             0.0000000000
     18887       649  TIP3      OH2             4.8093723962      -14.9606947950       26.2939123074  TIP3      513             0.0000000000
     18888       649  TIP3      H1              3.9738410910      -15.2925806323       25.9349347438  TIP3      513             0.0000000000
     18889       649  TIP3      H2              5.0192026739      -15.6774187738       26.9355879090  TIP3      513             0.0000000000
     18890       650  TIP3      OH2             5.2853968153      -16.6598730470       28.2910330329  TIP3      514             0.0000000000
     18891       650  TIP3      H1              4.6207255748      -17.3588146745       28.4275477967  TIP3      514             0.0000000000
     18892       650  TIP3      H2              5.3999495279      -16.3163174638       29.1983007773  TIP3      514             0.0000000000
     18893       651  TIP3      OH2            22.7657081150      -16.3075383924       30.8193098294  TIP3      515             0.0000000000
     18894       651  TIP3      H1             22.9422603246      -16.5290833641       31.7478348217  TIP3      515             0.0000000000
     18895       651  TIP3      H2             22.9768463467      -15.3654737972       30.8190191086  TIP3      515             0.0000000000
     18896       652  TIP3      OH2            22.8631553694      -16.8022165137       33.6298943845  TIP3      516             0.0000000000
     18897       652  TIP3      H1             22.3185498525      -17.5608779536       33.3125991898  TIP3      516             0.0000000000
     18898       652  TIP3      H2             22.8233296199      -16.9667557690       34.5903844521  TIP3      516             0.0000000000
     18899       653  TIP3      OH2            21.2795087802      -20.6687939207       38.7978801115  TIP3      517             0.0000000000
     18900       653  TIP3      H1             20.4690527435      -20.5027348455       39.3296409432  TIP3      517             0.0000000000
     18901       653  TIP3      H2             21.7361068153      -19.7956098142       38.8502259319  TIP3      517             0.0000000000
     18902       654  TIP3      OH2            22.7064910664      -22.2355634371       24.2358429744  TIP3      518             0.0000000000
     18903       654  TIP3      H1             23.5012863451      -21.7200358451       24.4583763434  TIP3      518             0.0000000000
     18904       654  TIP3      H2             22.7054766981      -22.9415275998       24.9229482831  TIP3      518             0.0000000000
     18905       655  TIP3      OH2            22.9640991425      -24.3027122152       25.8442010037  TIP3      519             0.0000000000
     18906       655  TIP3      H1             22.1025499031      -24.6491862910       26.1897982701  TIP3      519             0.0000000000
     18907       655  TIP3      H2             23.4270315605      -24.0978985796       26.6833917468  TIP3      519             0.0000000000
     18908       656  TIP3      OH2            22.5977248839      -21.3971549062       30.5101436407  TIP3      520             0.0000000000
     18909       656  TIP3      H1             23.2707368311      -22.0967277950       30.4968639060  TIP3      520             0.0000000000
     18910       656  TIP3      H2             23.1350693194      -20.5920652552       30.3625613259  TIP3      520             0.0000000000
     18911       657  TIP3      OH2            20.9862397194      -18.6407299244       33.1584236114  TIP3      521             0.0000000000
     18912       657  TIP3      H1             20.3009645342      -18.0707756134       33.5600670921  TIP3      521             0.0000000000
     18913       657  TIP3      H2             20.5023220181      -19.0344625263       32.3980553790  TIP3      521             0.0000000000
     18914       658  TIP3      OH2            23.7326620889      -24.1904266065       22.2199655471  TIP3      522             0.0000000000
     18915       658  TIP3      H1             24.5253978786      -24.0698691511       21.6605451533  TIP3      522             0.0000000000
     18916       658  TIP3      H2             23.6395028792      -23.3417274728       22.6994186074  TIP3      522             0.0000000000
     18917       659  TIP3      OH2            20.8890502021      -25.4920342719       26.9188397005  TIP3      523             0.0000000000
     18918       659  TIP3      H1             20.4202240262      -26.3203475996       26.6841474661  TIP3      523             0.0000000000
     18919       659  TIP3      H2             20.5353036153      -25.3674164346       27.8250465724  TIP3      523             0.0000000000
     18920       660  TIP3      OH2             5.5530867798      -23.4232659116       30.9113678962  TIP3      524             0.0000000000
     18921       660  TIP3      H1              5.5472377722      -23.6778889542       29.9597120168  TIP3      524             0.0000000000
     18922       660  TIP3      H2              6.4551565228      -23.7352180832       31.1680057468  TIP3      524             0.0000000000
     18923       661  TIP3      OH2            21.6407672435      -23.6928151920       36.3384162875  TIP3      525             0.0000000000
     18924       661  TIP3      H1             22.1149015090      -24.5548738687       36.3163528243  TIP3      525             0.0000000000
     18925       661  TIP3      H2             22.3590571912      -23.0590441597       36.1326953399  TIP3      525             0.0000000000
     18926       662  TIP3      OH2            22.8056794587      -26.1236693932       36.8176248928  TIP3      526             0.0000000000
     18927       662  TIP3      H1             21.9035671385      -26.5145051561       36.8563124492  TIP3      526             0.0000000000
     18928       662  TIP3      H2             23.3797131372      -26.9278093489       36.7398247232  TIP3      526             0.0000000000
     18929       663  TIP3      OH2            20.1133538129      -27.6192047642       25.5556486856  TIP3      527             0.0000000000
     18930       663  TIP3      H1             20.3718166916      -28.5625833975       25.3846648409  TIP3      527             0.0000000000
     18931       663  TIP3      H2             20.8793106183      -27.1511481734       25.1849044282  TIP3      527             0.0000000000
     18932       664  TIP3      OH2            21.1505989865      -27.1169234031       30.3586171341  TIP3      528             0.0000000000
     18933       664  TIP3      H1             22.1330703544      -27.1633711027       30.3834388280  TIP3      528             0.0000000000
     18934       664  TIP3      H2             20.9775434328      -27.0391302269       31.3229740523  TIP3      528             0.0000000000
     18935       665  TIP3      OH2            20.8157255587      -26.6645775894       32.9355784965  TIP3      529             0.0000000000
     18936       665  TIP3      H1             19.9855688689      -26.3519262184       33.3637795906  TIP3      529             0.0000000000
     18937       665  TIP3      H2             21.3608375479      -25.8420585467       32.9192683359  TIP3      529             0.0000000000
     18938       666  TIP3      OH2             5.7220315307      -28.4671651564       36.5953034818  TIP3      530             0.0000000000
     18939       666  TIP3      H1              6.4209454295      -28.6344837398       37.2629250477  TIP3      530             0.0000000000
     18940       666  TIP3      H2              5.0567334484      -29.1596488412       36.8198889617  TIP3      530             0.0000000000
     18941       667  TIP3      OH2            23.7851244232      -31.9600218837       38.6317279299  TIP3      531             0.0000000000
     18942       667  TIP3      H1             23.5123221105      -32.7095361372       38.0847520904  TIP3      531             0.0000000000
     18943       667  TIP3      H2             23.3035857919      -31.2208477677       38.1988197605  TIP3      531             0.0000000000
     18944       668  TIP3      OH2            21.0983826628      -30.0069322717       25.1000922419  TIP3      532             0.0000000000
     18945       668  TIP3      H1             21.3407511106      -30.5995647493       25.8664064848  TIP3      532             0.0000000000
     18946       668  TIP3      H2             20.3807685172      -30.5450047632       24.6961014894  TIP3      532             0.0000000000
     18947       669  TIP3      OH2             6.7707101361      -30.2555625251       30.3593108947  TIP3      533             0.0000000000
     18948       669  TIP3      H1              7.2414908321      -31.0246085115       29.9551666070  TIP3      533             0.0000000000
     18949       669  TIP3      H2              7.4122395806      -29.5173511679       30.2535435794  TIP3      533             0.0000000000
     18950       670  TIP3      OH2             5.0060049429      -26.8971137641       30.8480686515  TIP3      534             0.0000000000
     18951       670  TIP3      H1              5.7027063730      -27.1707702945       30.2284718616  TIP3      534             0.0000000000
     18952       670  TIP3      H2              5.1845670011      -25.9503886454       30.9003548683  TIP3      534             0.0000000000
     18953       671  TIP3      OH2            22.3463095528      -30.4074500695       36.8898572942  TIP3      535             0.0000000000
     18954       671  TIP3      H1             21.5107824730      -30.3361476491       37.4089566868  TIP3      535             0.0000000000
     18955       671  TIP3      H2             22.0152257674      -30.8487879199       36.0927987776  TIP3      535             0.0000000000
     18956       672  TIP3      OH2             5.1265568895      -30.9277520980       24.9653602638  TIP3      536             0.0000000000
     18957       672  TIP3      H1              4.3562651616      -31.4458434088       24.6626121149  TIP3      536             0.0000000000
     18958       672  TIP3      H2              5.0573385835      -30.1035193763       24.4470223505  TIP3      536             0.0000000000
     18959       673  TIP3      OH2            19.9414913644      -16.0258114461       27.0410112829  TIP3      537             0.0000000000
     18960       673  TIP3      H1             20.4961892469      -16.1400401156       26.2410260025  TIP3      537             0.0000000000
     18961       673  TIP3      H2             20.0492829208      -15.0987110457       27.2817538298  TIP3      537             0.0000000000
     18962       674  TIP3      OH2             4.4505049931      -32.1661650011       32.9271643830  TIP3      538             0.0000000000
     18963       674  TIP3      H1              5.2794010308      -32.1096343298       33.4273474103  TIP3      538             0.0000000000
     18964       674  TIP3      H2              4.5534408853      -31.4642178926       32.2620445464  TIP3      538             0.0000000000
     18965       675  TIP3      OH2             7.2723266208      -18.8145931599       37.1503900832  TIP3      539             0.0000000000
     18966       675  TIP3      H1              6.3600346330      -18.6023518631       36.8788909356  TIP3      539             0.0000000000
     18967       675  TIP3      H2              7.1722431161      -19.5346984065       37.7820493799  TIP3      539             0.0000000000
     18968       676  TIP3      OH2            10.0166546435      -17.1705132212       33.8190158147  TIP3      540             0.0000000000
     18969       676  TIP3      H1             10.0323954276      -16.2934877070       33.3758419002  TIP3      540             0.0000000000
     18970       676  TIP3      H2             10.9625979738      -17.4204980450       33.7212611121  TIP3      540             0.0000000000
     18971       677  TIP3      OH2            14.1538533691      -16.2106882669       36.2478282976  TIP3      541             0.0000000000
     18972       677  TIP3      H1             14.3242312548      -16.3171183639       37.2064150334  TIP3      541             0.0000000000
     18973       677  TIP3      H2             14.9882948978      -15.7856281881       35.9667696253  TIP3      541             0.0000000000
     18974       678  TIP3      OH2            16.3450522062      -14.5781189300       35.6855625046  TIP3      542             0.0000000000
     18975       678  TIP3      H1             17.0281617297      -15.2098475071       35.4025374500  TIP3      542             0.0000000000
     18976       678  TIP3      H2             16.7300767386      -14.2294244896       36.5124273914  TIP3      542             0.0000000000
     18977       679  TIP3      OH2            21.7225995147      -32.7155310051       35.1249942972  TIP3      543             0.0000000000
     18978       679  TIP3      H1             21.3625192562      -32.0826770475       34.4878240547  TIP3      543             0.0000000000
     18979       679  TIP3      H2             22.2917275218      -33.2907190910       34.5818834009  TIP3      543             0.0000000000
     18980       680  TIP3      OH2             7.4040661246      -14.5540950509       33.5016965126  TIP3      544             0.0000000000
     18981       680  TIP3      H1              6.6405727356      -14.1337317178       33.0562554350  TIP3      544             0.0000000000
     18982       680  TIP3      H2              7.4101699041      -14.0344787589       34.3209801829  TIP3      544             0.0000000000
     18983       681  TIP3      OH2             9.7806605156      -14.7514177967       32.4058131650  TIP3      545             0.0000000000
     18984       681  TIP3      H1              8.8812273261      -14.6643675742       32.8010503677  TIP3      545             0.0000000000
     18985       681  TIP3      H2              9.7295277631      -14.1260571285       31.6605956932  TIP3      545             0.0000000000
     18986       682  TIP3      OH2            14.5821999558      -15.3784333921       31.7418558442  TIP3      546             0.0000000000
     18987       682  TIP3      H1             13.8442372915      -14.8522986392       31.3926259770  TIP3      546             0.0000000000
     18988       682  TIP3      H2             15.0088847226      -14.6758914886       32.2845197450  TIP3      546             0.0000000000
     18989       683  TIP3      OH2            16.6840241618      -16.5179641792       33.1705649004  TIP3      547             0.0000000000
     18990       683  TIP3      H1             16.0222058062      -16.2028159443       32.5158567839  TIP3      547             0.0000000000
     18991       683  TIP3      H2             17.4209223993      -15.9186221787       32.9247463616  TIP3      547             0.0000000000
     18992       684  TIP3      OH2            18.9987408569      -14.8711710133       32.6901445124  TIP3      548             0.0000000000
     18993       684  TIP3      H1             19.1943295670      -13.9413477297       32.4448902746  TIP3      548             0.0000000000
     18994       684  TIP3      H2             19.3093957390      -15.3118637413       31.8615338302  TIP3      548             0.0000000000
     18995       685  TIP3      OH2             7.2020217218      -16.1432653180       30.5165757779  TIP3      549             0.0000000000
     18996       685  TIP3      H1              7.0977374013      -16.7211566976       31.3016253245  TIP3      549             0.0000000000
     18997       685  TIP3      H2              8.0658313131      -16.4298395226       30.1466294174  TIP3      549             0.0000000000
     18998       686  TIP3      OH2             9.4301600662      -16.9930344715       29.0908908932  TIP3      550             0.0000000000
     18999       686  TIP3      H1              9.2764871394      -17.9413497854       29.3172441850  TIP3      550             0.0000000000
     19000       686  TIP3      H2             10.2915814987      -16.8225312796       29.5115469789  TIP3      550             0.0000000000
     19001       687  TIP3      OH2            12.1194913247      -16.4169027837       29.4358347071  TIP3      551             0.0000000000
     19002       687  TIP3      H1             12.7360454000      -17.1597949473       29.3664370188  TIP3      551             0.0000000000
     19003       687  TIP3      H2             12.0041814874      -16.3523294248       30.3975183264  TIP3      551             0.0000000000
     19004       688  TIP3      OH2            15.5887556916      -31.0580469342       29.3331704171  TIP3      552             0.0000000000
     19005       688  TIP3      H1             14.6968797897      -31.3591391953       29.5917898269  TIP3      552             0.0000000000
     19006       688  TIP3      H2             15.9223751817      -31.8914719027       28.9761004360  TIP3      552             0.0000000000
     19007       689  TIP3      OH2            21.2683672470      -32.9843221007       29.1448842146  TIP3      553             0.0000000000
     19008       689  TIP3      H1             21.2005445015      -32.2987189379       28.4520315522  TIP3      553             0.0000000000
     19009       689  TIP3      H2             20.4789490566      -33.5378088353       28.9918633998  TIP3      553             0.0000000000
     19010       690  TIP3      OH2            22.1231282316      -31.3614860427       27.0926868523  TIP3      554             0.0000000000
     19011       690  TIP3      H1             22.5030156298      -32.1366537953       26.6266299997  TIP3      554             0.0000000000
     19012       690  TIP3      H2             22.9418300682      -30.9296520700       27.3835468926  TIP3      554             0.0000000000
     19013       691  TIP3      OH2             7.4956014081      -32.2153857289       26.7846520963  TIP3      555             0.0000000000
     19014       691  TIP3      H1              6.6292167731      -31.9644842389       26.4162196137  TIP3      555             0.0000000000
     19015       691  TIP3      H2              7.7884959163      -32.9502617479       26.1943668195  TIP3      555             0.0000000000
     19016       692  TIP3      OH2             6.6224031833      -31.9977223236       22.9925158754  TIP3      556             0.0000000000
     19017       692  TIP3      H1              6.6076304487      -31.3743140724       23.7504309894  TIP3      556             0.0000000000
     19018       692  TIP3      H2              5.7331401300      -32.3858079687       23.1056019796  TIP3      556             0.0000000000
     19019       693  TIP3      OH2            11.1621855642      -32.1839534654       26.2914798354  TIP3      557             0.0000000000
     19020       693  TIP3      H1             12.0576733520      -31.9030321670       26.0708566722  TIP3      557             0.0000000000
     19021       693  TIP3      H2             11.3434300948      -32.9560007494       26.8525249521  TIP3      557             0.0000000000
     19022       694  TIP3      OH2            18.2072312999      -32.5249097584       27.9932654278  TIP3      558             0.0000000000
     19023       694  TIP3      H1             17.8497704285      -31.7953017791       27.4685272239  TIP3      558             0.0000000000
     19024       694  TIP3      H2             17.4501676070      -33.0851733532       28.2549012383  TIP3      558             0.0000000000
     19025       695  TIP3      OH2            19.0213148330      -31.9269986772       24.1143181272  TIP3      559             0.0000000000
     19026       695  TIP3      H1             18.1922554536      -31.8432271482       23.6256099756  TIP3      559             0.0000000000
     19027       695  TIP3      H2             18.8797780428      -32.7724336350       24.6095109876  TIP3      559             0.0000000000
     19028       696  TIP3      OH2             6.2081105229      -16.8391915133       23.7920816524  TIP3      560             0.0000000000
     19029       696  TIP3      H1              6.1597964983      -17.5056117130       23.0809009084  TIP3      560             0.0000000000
     19030       696  TIP3      H2              6.2524497026      -16.0164551548       23.2626860795  TIP3      560             0.0000000000
     19031       697  TIP3      OH2             8.7431226519      -30.8799860408       21.6808298285  TIP3      561             0.0000000000
     19032       697  TIP3      H1              9.4282723940      -31.5157476607       21.9217317518  TIP3      561             0.0000000000
     19033       697  TIP3      H2              7.9894059520      -31.1445538824       22.2506498954  TIP3      561             0.0000000000
     19034       698  TIP3      OH2            12.7026722689      -30.4830011137       24.1520953568  TIP3      562             0.0000000000
     19035       698  TIP3      H1             13.3203753019      -31.1878014565       24.3821889698  TIP3      562             0.0000000000
     19036       698  TIP3      H2             13.1363738854      -29.7328148720       24.6303577154  TIP3      562             0.0000000000
     19037       699  TIP3      OH2            15.3491911946      -15.1700206503       22.1650476493  TIP3      563             0.0000000000
     19038       699  TIP3      H1             16.1941992786      -15.6067645975       21.9331164457  TIP3      563             0.0000000000
     19039       699  TIP3      H2             14.7730007804      -15.9658902235       22.1359219802  TIP3      563             0.0000000000
     19040       700  TIP3      OH2            21.4539574336      -16.4062201924       24.9003080496  TIP3      564             0.0000000000
     19041       700  TIP3      H1             21.3061021316      -17.2804459077       24.4771987610  TIP3      564             0.0000000000
     19042       700  TIP3      H2             21.4074465790      -15.8308491729       24.1109605343  TIP3      564             0.0000000000
     19043       701  TIP3      OH2             7.4145600383      -31.8364656695       36.6182015965  TIP3      565             0.0000000000
     19044       701  TIP3      H1              6.9691724101      -32.6953899742       36.5697250486  TIP3      565             0.0000000000
     19045       701  TIP3      H2              8.2251520763      -32.0720465032       37.1228421041  TIP3      565             0.0000000000
     19046       702  TIP3      OH2             9.4295969078       33.3427483780       38.0216808626  TIP3      566             0.0000000000
     19047       702  TIP3      H1             10.3881192733       33.4482724091       38.1638234821  TIP3      566             0.0000000000
     19048       702  TIP3      H2              9.2558689301       32.3834658748       38.0727450608  TIP3      566             0.0000000000
     19049       703  TIP3      OH2            16.6642397868       33.2543036907       38.3368749515  TIP3      567             0.0000000000
     19050       703  TIP3      H1             16.2853179843       32.7305577199       39.0591063466  TIP3      567             0.0000000000
     19051       703  TIP3      H2             17.1193163659       32.5622373633       37.8260677625  TIP3      567             0.0000000000
     19052       704  TIP3      OH2            21.1250440824      -17.3856102514       36.5348821271  TIP3      568             0.0000000000
     19053       704  TIP3      H1             20.3871335544      -17.4017974253       35.8865980205  TIP3      568             0.0000000000
     19054       704  TIP3      H2             21.0822261778      -16.4594357332       36.8120184356  TIP3      568             0.0000000000
     19055       705  TIP3      OH2            26.7077866659      -24.6574657498       31.4479849031  TIP3      569             0.0000000000
     19056       705  TIP3      H1             26.9043948910      -25.5489573071       31.7939975799  TIP3      569             0.0000000000
     19057       705  TIP3      H2             26.9517258166      -24.1139788059       32.2353979263  TIP3      569             0.0000000000
     19058       706  TIP3      OH2            27.8640353113      -19.8535007441       29.2140485294  TIP3      570             0.0000000000
     19059       706  TIP3      H1             27.5351076650      -20.7684513994       29.3453577432  TIP3      570             0.0000000000
     19060       706  TIP3      H2             28.7928570305      -19.9744512330       29.5231043801  TIP3      570             0.0000000000
     19061       707  TIP3      OH2            24.3401679981      -26.6166976314       25.6218396744  TIP3      571             0.0000000000
     19062       707  TIP3      H1             24.0720320647      -26.1630868890       26.4385764643  TIP3      571             0.0000000000
     19063       707  TIP3      H2             24.1668364985      -25.9112074881       24.9669472735  TIP3      571             0.0000000000
     19064       708  TIP3      OH2            24.4395802783      -24.3451148792       28.1178438525  TIP3      572             0.0000000000
     19065       708  TIP3      H1             24.7176249982      -25.2700597862       28.2858108997  TIP3      572             0.0000000000
     19066       708  TIP3      H2             25.2718683145      -23.9494916973       27.8176338467  TIP3      572             0.0000000000
     19067       709  TIP3      OH2           -33.2567641522      -21.3388788530       31.8408006623  TIP3      573             0.0000000000
     19068       709  TIP3      H1            -32.7322090274      -22.0325082527       31.3874122791  TIP3      573             0.0000000000
     19069       709  TIP3      H2            -32.8963307099      -20.5073248513       31.4867604021  TIP3      573             0.0000000000
     19070       710  TIP3      OH2            29.0859425637      -29.3696882134       27.9958513473  TIP3      574             0.0000000000
     19071       710  TIP3      H1             29.3455094636      -28.5893547719       27.4554125975  TIP3      574             0.0000000000
     19072       710  TIP3      H2             28.8545645762      -29.9781708793       27.2737368297  TIP3      574             0.0000000000
     19073       711  TIP3      OH2            25.2184795607      -26.7473435837       28.5943632055  TIP3      575             0.0000000000
     19074       711  TIP3      H1             25.8760616014      -26.7788790245       29.3048104281  TIP3      575             0.0000000000
     19075       711  TIP3      H2             25.7559712043      -27.1506075427       27.8750700353  TIP3      575             0.0000000000
     19076       712  TIP3      OH2            30.6318627685      -25.3532510957       28.3616609640  TIP3      576             0.0000000000
     19077       712  TIP3      H1             31.5377664027      -25.5629097362       28.6773796940  TIP3      576             0.0000000000
     19078       712  TIP3      H2             30.4570006726      -26.1896800328       27.9016495698  TIP3      576             0.0000000000
     19079       713  TIP3      OH2            27.9676872114      -30.3723921267       32.3836006321  TIP3      577             0.0000000000
     19080       713  TIP3      H1             27.6885359221      -29.9675767675       31.5425297059  TIP3      577             0.0000000000
     19081       713  TIP3      H2             27.1527370495      -30.2037406433       32.9088185371  TIP3      577             0.0000000000
     19082       714  TIP3      OH2            30.7832120873      -22.6945786113       32.5944093100  TIP3      578             0.0000000000
     19083       714  TIP3      H1             30.1577726011      -22.0173802331       32.9067611436  TIP3      578             0.0000000000
     19084       714  TIP3      H2             31.4899496508      -22.1393336882       32.2109994244  TIP3      578             0.0000000000
     19085       715  TIP3      OH2            27.6361802250      -28.5345281849       30.1832061654  TIP3      579             0.0000000000
     19086       715  TIP3      H1             28.2772594352      -27.9879120325       30.6807785836  TIP3      579             0.0000000000
     19087       715  TIP3      H2             28.1540509047      -28.7311927863       29.3627793160  TIP3      579             0.0000000000
     19088       716  TIP3      OH2            28.8181484550      -20.3639856259       33.4121387566  TIP3      580             0.0000000000
     19089       716  TIP3      H1             28.8594408512      -19.4348331102       33.1112073209  TIP3      580             0.0000000000
     19090       716  TIP3      H2             27.9003112231      -20.3864356341       33.7725627342  TIP3      580             0.0000000000
     19091       717  TIP3      OH2            25.1351427105      -20.9909628347       23.6967022687  TIP3      581             0.0000000000
     19092       717  TIP3      H1             24.9913201364      -20.6132474169       22.8198001520  TIP3      581             0.0000000000
     19093       717  TIP3      H2             24.9250132611      -20.1932382883       24.2379983803  TIP3      581             0.0000000000
     19094       718  TIP3      OH2            31.9866644632      -32.2855952462       29.3576058197  TIP3      582             0.0000000000
     19095       718  TIP3      H1             32.2649577407      -33.1004588795       29.7924288972  TIP3      582             0.0000000000
     19096       718  TIP3      H2             31.0718299413      -32.1605641206       29.6853493703  TIP3      582             0.0000000000
     19097       719  TIP3      OH2            29.0735892858      -23.3273250333       27.5753228396  TIP3      583             0.0000000000
     19098       719  TIP3      H1             28.8310209560      -23.5832338832       26.6472860057  TIP3      583             0.0000000000
     19099       719  TIP3      H2             29.7116269959      -24.0415700379       27.8057216411  TIP3      583             0.0000000000
     19100       720  TIP3      OH2            30.5397745132      -20.1649232848       29.6761978732  TIP3      584             0.0000000000
     19101       720  TIP3      H1             30.8880586374      -20.5885268900       28.8756207427  TIP3      584             0.0000000000
     19102       720  TIP3      H2             31.1483273600      -20.5073323591       30.3472142384  TIP3      584             0.0000000000
     19103       721  TIP3      OH2            29.5430515370      -24.7092902848       31.1816696108  TIP3      585             0.0000000000
     19104       721  TIP3      H1             29.6770837363      -24.6246168051       30.2178502493  TIP3      585             0.0000000000
     19105       721  TIP3      H2             30.0392852190      -23.9352345764       31.5339066746  TIP3      585             0.0000000000
     19106       722  TIP3      OH2            30.5684103510      -20.6589537794       35.4873760389  TIP3      586             0.0000000000
     19107       722  TIP3      H1             30.1141128876      -20.0413955693       36.0935004912  TIP3      586             0.0000000000
     19108       722  TIP3      H2             30.0040903227      -20.5823887688       34.6881433709  TIP3      586             0.0000000000
     19109       723  TIP3      OH2            27.2114905087      -24.0400257847       34.1349381565  TIP3      587             0.0000000000
     19110       723  TIP3      H1             27.7097274854      -23.3712299131       34.6322304464  TIP3      587             0.0000000000
     19111       723  TIP3      H2             26.6760469818      -24.4316439893       34.8501953063  TIP3      587             0.0000000000
     19112       724  TIP3      OH2            28.6266631806      -18.6717526547       36.4890645675  TIP3      588             0.0000000000
     19113       724  TIP3      H1             28.5975624966      -18.2295373994       35.6197609341  TIP3      588             0.0000000000
     19114       724  TIP3      H2             27.6664432762      -18.7974201750       36.6594391505  TIP3      588             0.0000000000
     19115       725  TIP3      OH2            28.2798108816      -24.2255719058       25.2276049435  TIP3      589             0.0000000000
     19116       725  TIP3      H1             27.9870532047      -23.4493502640       24.6789450828  TIP3      589             0.0000000000
     19117       725  TIP3      H2             28.5045023299      -24.8519717310       24.5367440018  TIP3      589             0.0000000000
     19118       726  TIP3      OH2            24.6095392111      -22.1240036266       33.6772993988  TIP3      590             0.0000000000
     19119       726  TIP3      H1             24.3770558395      -22.3080969201       32.7560627192  TIP3      590             0.0000000000
     19120       726  TIP3      H2             24.6535516524      -23.0411013607       34.0306454070  TIP3      590             0.0000000000
     19121       727  TIP3      OH2            24.4894992740      -19.3137426368       30.4054284705  TIP3      591             0.0000000000
     19122       727  TIP3      H1             25.3650755264      -19.5840559867       30.0945673478  TIP3      591             0.0000000000
     19123       727  TIP3      H2             24.7135191632      -18.6177400225       31.0551571216  TIP3      591             0.0000000000
     19124       728  TIP3      OH2            27.1420167117      -16.0390424484       26.7309700847  TIP3      592             0.0000000000
     19125       728  TIP3      H1             27.6755109406      -16.4170334600       27.4725958916  TIP3      592             0.0000000000
     19126       728  TIP3      H2             26.2536934291      -16.2956701751       27.0396125424  TIP3      592             0.0000000000
     19127       729  TIP3      OH2            26.3671256874      -20.2982318583       34.4769672924  TIP3      593             0.0000000000
     19128       729  TIP3      H1             26.5569597128      -20.7068080403       35.3483045511  TIP3      593             0.0000000000
     19129       729  TIP3      H2             25.7377940378      -20.9597666882       34.1109821981  TIP3      593             0.0000000000
     19130       730  TIP3      OH2            29.4630258030      -31.9503413839       30.3694303853  TIP3      594             0.0000000000
     19131       730  TIP3      H1             28.7009236967      -31.9821080754       29.7495705530  TIP3      594             0.0000000000
     19132       730  TIP3      H2             29.0319781728      -31.5358618722       31.1394905531  TIP3      594             0.0000000000
     19133       731  TIP3      OH2            29.2943245408      -27.2702763741       32.0920050065  TIP3      595             0.0000000000
     19134       731  TIP3      H1             28.4149436148      -27.3149081541       32.5251974932  TIP3      595             0.0000000000
     19135       731  TIP3      H2             29.3137123478      -26.3614844330       31.7091831317  TIP3      595             0.0000000000
     19136       732  TIP3      OH2            29.4074015748      -27.2477051661       26.4048399564  TIP3      596             0.0000000000
     19137       732  TIP3      H1             28.4750309697      -26.9672618955       26.4717300016  TIP3      596             0.0000000000
     19138       732  TIP3      H2             29.3995851439      -27.7317229447       25.5688541214  TIP3      596             0.0000000000
     19139       733  TIP3      OH2            26.7815471681      -27.1485538309       32.9281361393  TIP3      597             0.0000000000
     19140       733  TIP3      H1             26.8594639364      -26.6390920664       33.7509289487  TIP3      597             0.0000000000
     19141       733  TIP3      H2             26.1976173912      -27.8907583774       33.1902195340  TIP3      597             0.0000000000
     19142       734  TIP3      OH2            30.3745141084      -29.8826338424       20.3607922694  TIP3      598             0.0000000000
     19143       734  TIP3      H1             29.9507162209      -29.6294982757       21.2111049386  TIP3      598             0.0000000000
     19144       734  TIP3      H2             30.7928878201      -29.0677822198       20.0862381433  TIP3      598             0.0000000000
     19145       735  TIP3      OH2            24.8332186534      -30.2958198849       27.2671567785  TIP3      599             0.0000000000
     19146       735  TIP3      H1             25.0654956628      -29.9688820640       28.1694364487  TIP3      599             0.0000000000
     19147       735  TIP3      H2             25.3401921117      -31.1426108482       27.2518277731  TIP3      599             0.0000000000
     19148       736  TIP3      OH2            24.9706145452      -28.5187037038       22.5615032100  TIP3      600             0.0000000000
     19149       736  TIP3      H1             25.4921142807      -29.2750168188       22.2109126129  TIP3      600             0.0000000000
     19150       736  TIP3      H2             25.2299945245      -27.8056959704       21.9456628545  TIP3      600             0.0000000000
     19151       737  TIP3      OH2            31.7861476035      -29.2098300502       28.4238319529  TIP3      601             0.0000000000
     19152       737  TIP3      H1             30.8401034780      -29.4057852282       28.2927156306  TIP3      601             0.0000000000
     19153       737  TIP3      H2             32.0462665983      -30.0379674045       28.8563768378  TIP3      601             0.0000000000
     19154       738  TIP3      OH2            26.6837012889      -27.4606071344       26.5571636283  TIP3      602             0.0000000000
     19155       738  TIP3      H1             25.9527398564      -27.2604036009       25.9259344284  TIP3      602             0.0000000000
     19156       738  TIP3      H2             26.9268663444      -28.3709630758       26.2992151910  TIP3      602             0.0000000000
     19157       739  TIP3      OH2            30.7920163589      -27.2985998136       23.3396321152  TIP3      603             0.0000000000
     19158       739  TIP3      H1             31.4818646815      -27.2640752247       24.0179393027  TIP3      603             0.0000000000
     19159       739  TIP3      H2             30.6679783782      -26.3721067807       23.0959841553  TIP3      603             0.0000000000
     19160       740  TIP3      OH2            26.6678147825      -21.7605773627       36.7022585313  TIP3      604             0.0000000000
     19161       740  TIP3      H1             27.4417637457      -21.8199529239       37.3005242901  TIP3      604             0.0000000000
     19162       740  TIP3      H2             25.9598531158      -22.1242308853       37.2789438060  TIP3      604             0.0000000000
     19163       741  TIP3      OH2           -33.3824349524      -26.7470431218       28.9203482444  TIP3      605             0.0000000000
     19164       741  TIP3      H1            -32.4687730594      -26.9005167350       28.6259077648  TIP3      605             0.0000000000
     19165       741  TIP3      H2            -33.7918933384      -27.6274004921       28.7485812999  TIP3      605             0.0000000000
     19166       742  TIP3      OH2            27.6968128323      -30.0967818591       25.7239835616  TIP3      606             0.0000000000
     19167       742  TIP3      H1             27.0753412081      -30.7817642620       26.0371501814  TIP3      606             0.0000000000
     19168       742  TIP3      H2             28.4825545723      -30.6252993478       25.4725592788  TIP3      606             0.0000000000
     19169       743  TIP3      OH2            31.5001950444      -28.6348485977       31.8537242010  TIP3      607             0.0000000000
     19170       743  TIP3      H1             30.6890558362      -28.0796068513       31.9552665063  TIP3      607             0.0000000000
     19171       743  TIP3      H2             32.1973889327      -27.9538795258       31.8047558508  TIP3      607             0.0000000000
     19172       744  TIP3      OH2            32.1069248905      -21.4686889960       24.0329083931  TIP3      608             0.0000000000
     19173       744  TIP3      H1             31.7055932189      -22.2546201287       23.6284354825  TIP3      608             0.0000000000
     19174       744  TIP3      H2             31.8474234014      -21.5746027011       24.9744251354  TIP3      608             0.0000000000
     19175       745  TIP3      OH2            27.3137839598      -22.6436136135       29.6348334329  TIP3      609             0.0000000000
     19176       745  TIP3      H1             27.7939566640      -22.9651307169       28.8443151096  TIP3      609             0.0000000000
     19177       745  TIP3      H2             27.2560975031      -23.4482420882       30.1898719144  TIP3      609             0.0000000000
     19178       746  TIP3      OH2            24.1224414225      -24.5883569745       34.9166901715  TIP3      610             0.0000000000
     19179       746  TIP3      H1             23.9134308326      -25.1698414196       35.6758549633  TIP3      610             0.0000000000
     19180       746  TIP3      H2             23.3732644664      -24.7646005975       34.3121371897  TIP3      610             0.0000000000
     19181       747  TIP3      OH2            31.6714528810      -24.8379353699       36.4992597668  TIP3      611             0.0000000000
     19182       747  TIP3      H1             30.9910290920      -24.9705374798       35.8102350221  TIP3      611             0.0000000000
     19183       747  TIP3      H2             32.3337930599      -25.4873293826       36.2043694786  TIP3      611             0.0000000000
     19184       748  TIP3      OH2            30.0553281398      -18.8615475575       26.5412651559  TIP3      612             0.0000000000
     19185       748  TIP3      H1             29.9414127130      -17.9037498518       26.6097100182  TIP3      612             0.0000000000
     19186       748  TIP3      H2             29.3036524525      -19.1739178767       27.0604903779  TIP3      612             0.0000000000
     19187       749  TIP3      OH2            31.1790671166      -21.4950383410       26.6027199201  TIP3      613             0.0000000000
     19188       749  TIP3      H1             30.7874498040      -20.5966011141       26.5428359215  TIP3      613             0.0000000000
     19189       749  TIP3      H2             30.5015862094      -22.0246950109       27.0648277837  TIP3      613             0.0000000000
     19190       750  TIP3      OH2            31.5654605830      -17.5636281713       33.2448266517  TIP3      614             0.0000000000
     19191       750  TIP3      H1             31.8204360277      -16.6274083831       33.3108561820  TIP3      614             0.0000000000
     19192       750  TIP3      H2             32.2378586262      -18.0116630616       33.7839400496  TIP3      614             0.0000000000
     19193       751  TIP3      OH2            29.9910916362      -15.7903445679       25.6058655869  TIP3      615             0.0000000000
     19194       751  TIP3      H1             29.0697753211      -16.0049532435       25.8564195011  TIP3      615             0.0000000000
     19195       751  TIP3      H2             30.0875158105      -14.9309024401       26.0738426407  TIP3      615             0.0000000000
     19196       752  TIP3      OH2            25.5518275626      -29.6443872488       33.5581272104  TIP3      616             0.0000000000
     19197       752  TIP3      H1             24.6367652463      -29.2989523400       33.5719772390  TIP3      616             0.0000000000
     19198       752  TIP3      H2             25.6012730549      -30.1133892223       34.4099416222  TIP3      616             0.0000000000
     19199       753  TIP3      OH2            25.5417757116      -17.5729470389       32.3078091480  TIP3      617             0.0000000000
     19200       753  TIP3      H1             26.2368052858      -18.0537698930       32.7872045194  TIP3      617             0.0000000000
     19201       753  TIP3      H2             25.0194011039      -17.1787031564       33.0287491424  TIP3      617             0.0000000000
     19202       754  TIP3      OH2            29.7931727519      -20.3082389127       20.4724031592  TIP3      618             0.0000000000
     19203       754  TIP3      H1             30.0189593079      -20.7410976589       19.6504451721  TIP3      618             0.0000000000
     19204       754  TIP3      H2             29.9732399068      -21.0601944622       21.1012508076  TIP3      618             0.0000000000
     19205       755  TIP3      OH2            30.1223833858      -19.6594430461       23.3607017991  TIP3      619             0.0000000000
     19206       755  TIP3      H1             30.8823689644      -20.2070663590       23.6408347667  TIP3      619             0.0000000000
     19207       755  TIP3      H2             30.3868090061      -18.7370420079       23.5415857469  TIP3      619             0.0000000000
     19208       756  TIP3      OH2            27.5904246715      -22.2339285340       23.6552496284  TIP3      620             0.0000000000
     19209       756  TIP3      H1             26.6893961277      -21.8642234919       23.7566571221  TIP3      620             0.0000000000
     19210       756  TIP3      H2             27.9366376759      -21.7250400965       22.9108444660  TIP3      620             0.0000000000
     19211       757  TIP3      OH2            33.1551936354      -28.4767980489       24.7646038381  TIP3      621             0.0000000000
     19212       757  TIP3      H1             33.6525072264      -27.7867120761       25.2518930081  TIP3      621             0.0000000000
     19213       757  TIP3      H2             32.7133332099      -28.9448309664       25.4900099860  TIP3      621             0.0000000000
     19214       758  TIP3      OH2            30.4079819633      -17.0144953792       23.1667103195  TIP3      622             0.0000000000
     19215       758  TIP3      H1             30.5550113336      -16.1637721671       22.7375405981  TIP3      622             0.0000000000
     19216       758  TIP3      H2             30.1404410683      -16.6856439256       24.0513961535  TIP3      622             0.0000000000
     19217       759  TIP3      OH2            29.4471817342      -29.6382540958       22.9154169722  TIP3      623             0.0000000000
     19218       759  TIP3      H1             29.8318046780      -28.7532396413       23.1214604447  TIP3      623             0.0000000000
     19219       759  TIP3      H2             29.8069994661      -30.1688095861       23.6604527247  TIP3      623             0.0000000000
     19220       760  TIP3      OH2            27.7269013224      -19.7181424604       22.0281470584  TIP3      624             0.0000000000
     19221       760  TIP3      H1             28.4384678378      -19.5948145214       22.6956872729  TIP3      624             0.0000000000
     19222       760  TIP3      H2             28.3033288578      -20.0109276319       21.2908992711  TIP3      624             0.0000000000
     19223       761  TIP3      OH2            26.8179755792      -32.2759905576       29.8002184475  TIP3      625             0.0000000000
     19224       761  TIP3      H1             26.4806696534      -32.8534517060       29.0821822769  TIP3      625             0.0000000000
     19225       761  TIP3      H2             26.6605339181      -32.9474254370       30.5008412580  TIP3      625             0.0000000000
     19226       762  TIP3      OH2            24.7738320466      -18.6633748564       24.8811572295  TIP3      626             0.0000000000
     19227       762  TIP3      H1             24.0993464611      -18.0721669187       25.2526098828  TIP3      626             0.0000000000
     19228       762  TIP3      H2             25.5840228231      -18.1964458019       25.1093407332  TIP3      626             0.0000000000
     19229       763  TIP3      OH2            24.4514226846      -15.4827659296       37.3139425992  TIP3      627             0.0000000000
     19230       763  TIP3      H1             25.0441085338      -15.5778545995       38.0979361614  TIP3      627             0.0000000000
     19231       763  TIP3      H2             24.2375148185      -16.4236946186       37.1809328053  TIP3      627             0.0000000000
     19232       764  TIP3      OH2            29.3839562009      -17.0457604463       38.5141331453  TIP3      628             0.0000000000
     19233       764  TIP3      H1             30.2406615269      -17.4711554327       38.6828490092  TIP3      628             0.0000000000
     19234       764  TIP3      H2             29.1278650574      -17.5113242810       37.6904731332  TIP3      628             0.0000000000
     19235       765  TIP3      OH2            24.3669571895      -21.9397008534       38.1375578747  TIP3      629             0.0000000000
     19236       765  TIP3      H1             23.8132196085      -22.6637362193       38.4892775705  TIP3      629             0.0000000000
     19237       765  TIP3      H2             23.8920436557      -21.7135921887       37.3103158947  TIP3      629             0.0000000000
     19238       766  TIP3      OH2            31.2107161253      -22.2971734685       37.5271220721  TIP3      630             0.0000000000
     19239       766  TIP3      H1             31.0643732158      -21.6765930070       36.7711703339  TIP3      630             0.0000000000
     19240       766  TIP3      H2             31.3162360177      -23.1592203835       37.0583007178  TIP3      630             0.0000000000
     19241       767  TIP3      OH2            26.0787614281      -25.1731156469       37.3828451301  TIP3      631             0.0000000000
     19242       767  TIP3      H1             25.5121135025      -25.9031108910       37.6338378509  TIP3      631             0.0000000000
     19243       767  TIP3      H2             26.2411477523      -24.7016715243       38.2251358931  TIP3      631             0.0000000000
     19244       768  TIP3      OH2            29.5642453889      -25.3149696034       34.6769759559  TIP3      632             0.0000000000
     19245       768  TIP3      H1             28.7257453391      -24.9706235968       34.3133977944  TIP3      632             0.0000000000
     19246       768  TIP3      H2             30.1691652814      -25.2367969301       33.9079667572  TIP3      632             0.0000000000
     19247       769  TIP3      OH2            29.9218036469      -27.8892915464       35.4702731604  TIP3      633             0.0000000000
     19248       769  TIP3      H1             30.0578027074      -28.5775606741       34.7732318168  TIP3      633             0.0000000000
     19249       769  TIP3      H2             29.9274491112      -27.0450109309       34.9732971321  TIP3      633             0.0000000000
     19250       770  TIP3      OH2            30.2234991184      -29.9353598293       33.6859709475  TIP3      634             0.0000000000
     19251       770  TIP3      H1             30.8111716068      -29.6804788509       32.9379387555  TIP3      634             0.0000000000
     19252       770  TIP3      H2             29.3764439748      -30.0495697361       33.2040318135  TIP3      634             0.0000000000
     19253       771  TIP3      OH2            32.3848890733      -25.1929107801       33.3045536107  TIP3      635             0.0000000000
     19254       771  TIP3      H1             32.8480248685      -25.7675095602       32.6642427165  TIP3      635             0.0000000000
     19255       771  TIP3      H2             32.3204429588      -24.3427090783       32.8359544703  TIP3      635             0.0000000000
     19256       772  TIP3      OH2            28.4856526330      -27.6393261658       37.7140667968  TIP3      636             0.0000000000
     19257       772  TIP3      H1             27.5797796687      -27.9010359103       37.4486448170  TIP3      636             0.0000000000
     19258       772  TIP3      H2             28.9986658557      -27.7117758165       36.8756093605  TIP3      636             0.0000000000
     19259       773  TIP3      OH2            30.3995846382      -32.4471464869       34.4661364644  TIP3      637             0.0000000000
     19260       773  TIP3      H1             30.4212560163      -31.5039996669       34.1855132510  TIP3      637             0.0000000000
     19261       773  TIP3      H2             30.5283678977      -32.9081663383       33.6285236302  TIP3      637             0.0000000000
     19262       774  TIP3      OH2            31.6005887676      -28.2721488501       37.5534036601  TIP3      638             0.0000000000
     19263       774  TIP3      H1             31.0033259891      -28.6564458228       38.2352727168  TIP3      638             0.0000000000
     19264       774  TIP3      H2             30.9772869205      -28.1625352295       36.7986794033  TIP3      638             0.0000000000
     19265       775  TIP3      OH2            26.2505132136      -29.2482439150       38.0404354380  TIP3      639             0.0000000000
     19266       775  TIP3      H1             26.3662598788      -30.0368167904       37.4677712506  TIP3      639             0.0000000000
     19267       775  TIP3      H2             26.5725818338      -29.6202692098       38.8942961017  TIP3      639             0.0000000000
     19268       776  TIP3      OH2            30.8489136918       33.3360171703       37.0435898722  TIP3      640             0.0000000000
     19269       776  TIP3      H1             31.2394289584       32.4400098710       37.0170610296  TIP3      640             0.0000000000
     19270       776  TIP3      H2             30.7450284474       33.5419009142       36.0800253242  TIP3      640             0.0000000000
     19271       777  TIP3      OH2            32.7046446751      -31.7717110213       38.8077556258  TIP3      641             0.0000000000
     19272       777  TIP3      H1             31.9846066285      -32.0504416279       38.2087318724  TIP3      641             0.0000000000
     19273       777  TIP3      H2             32.5466976213      -30.8186064085       38.8865379919  TIP3      641             0.0000000000
     19274       778  TIP3      OH2            25.2919401163      -20.3081371686       20.5072878797  TIP3      642             0.0000000000
     19275       778  TIP3      H1             25.8582957414      -19.9422370236       21.2086376520  TIP3      642             0.0000000000
     19276       778  TIP3      H2             25.6347458861      -21.2011291132       20.3830842475  TIP3      642             0.0000000000
     19277       779  TIP3      OH2            23.3513339657      -15.0575141474       26.3442246173  TIP3      643             0.0000000000
     19278       779  TIP3      H1             22.6847410644      -15.6274146036       25.9014237222  TIP3      643             0.0000000000
     19279       779  TIP3      H2             23.8020281890      -15.6799761520       26.9453490325  TIP3      643             0.0000000000
     19280       780  TIP3      OH2            24.6229128141      -16.8925186746       28.0485342283  TIP3      644             0.0000000000
     19281       780  TIP3      H1             23.8396110567      -17.2415109341       28.5134180887  TIP3      644             0.0000000000
     19282       780  TIP3      H2             25.1271274182      -16.5662780850       28.8303490135  TIP3      644             0.0000000000
     19283       781  TIP3      OH2            24.3619096419      -23.5711802723       30.9919659673  TIP3      645             0.0000000000
     19284       781  TIP3      H1             24.2604089442      -23.7918843858       30.0384414790  TIP3      645             0.0000000000
     19285       781  TIP3      H2             25.2911376818      -23.8469344618       31.1537863898  TIP3      645             0.0000000000
     19286       782  TIP3      OH2            24.1063401665      -28.4010383647       36.8569872398  TIP3      646             0.0000000000
     19287       782  TIP3      H1             24.8627867834      -28.7144018025       37.4079722119  TIP3      646             0.0000000000
     19288       782  TIP3      H2             23.5341713314      -29.1980448047       36.8288121297  TIP3      646             0.0000000000
     19289       783  TIP3      OH2            25.3937134966      -29.9683103182       29.9790818364  TIP3      647             0.0000000000
     19290       783  TIP3      H1             25.7313747816      -30.8889771451       30.0718051961  TIP3      647             0.0000000000
     19291       783  TIP3      H2             26.2102388198      -29.4340257321       30.1111484234  TIP3      647             0.0000000000
     19292       784  TIP3      OH2            23.7432344242      -27.2658936599       31.0026201062  TIP3      648             0.0000000000
     19293       784  TIP3      H1             24.2845344285      -27.9855062248       30.6430413972  TIP3      648             0.0000000000
     19294       784  TIP3      H2             24.2781871640      -26.4808303065       30.8120313677  TIP3      648             0.0000000000
     19295       785  TIP3      OH2            23.5603282066      -31.2468179449       23.5316688864  TIP3      649             0.0000000000
     19296       785  TIP3      H1             22.8917166382      -31.9356434700       23.7235673462  TIP3      649             0.0000000000
     19297       785  TIP3      H2             23.2856364382      -31.0088628051       22.6050532223  TIP3      649             0.0000000000
     19298       786  TIP3      OH2            23.5895850332      -32.2092054682       32.6569702287  TIP3      650             0.0000000000
     19299       786  TIP3      H1             24.0495758061      -31.9239955852       33.4552854661  TIP3      650             0.0000000000
     19300       786  TIP3      H2             23.2871095180      -31.3651826883       32.2610199616  TIP3      650             0.0000000000
     19301       787  TIP3      OH2            25.9109427954      -19.1064700208       37.0734575858  TIP3      651             0.0000000000
     19302       787  TIP3      H1             24.9810432322      -19.0160185261       36.7723066920  TIP3      651             0.0000000000
     19303       787  TIP3      H2             26.0040379061      -20.0660369516       37.1832853056  TIP3      651             0.0000000000
     19304       788  TIP3      OH2            28.9298364156      -17.4451381858       33.8155807472  TIP3      652             0.0000000000
     19305       788  TIP3      H1             28.7377779330      -16.6549459192       33.2619640787  TIP3      652             0.0000000000
     19306       788  TIP3      H2             29.8978418371      -17.5481604284       33.6693794124  TIP3      652             0.0000000000
     19307       789  TIP3      OH2            26.5281621364      -14.3444258636       33.7538660491  TIP3      653             0.0000000000
     19308       789  TIP3      H1             25.7181963472      -13.8447010217       33.5138855156  TIP3      653             0.0000000000
     19309       789  TIP3      H2             26.3925526365      -14.5007073757       34.6977871392  TIP3      653             0.0000000000
     19310       790  TIP3      OH2            28.4837786110      -15.1610877539       32.2722925017  TIP3      654             0.0000000000
     19311       790  TIP3      H1             27.6110470858      -14.9951143307       32.7100045523  TIP3      654             0.0000000000
     19312       790  TIP3      H2             28.5094620520      -14.4406518430       31.6186189591  TIP3      654             0.0000000000
     19313       791  TIP3      OH2            26.0893008559      -16.1669041393       30.1446381694  TIP3      655             0.0000000000
     19314       791  TIP3      H1             25.7107227797      -16.6485716479       30.9179977746  TIP3      655             0.0000000000
     19315       791  TIP3      H2             27.0097884661      -16.4885455564       30.1566736985  TIP3      655             0.0000000000
     19316       792  TIP3      OH2            28.3530473831      -17.1958742452       28.8007231868  TIP3      656             0.0000000000
     19317       792  TIP3      H1             28.0308058347      -18.1098687270       28.9709743171  TIP3      656             0.0000000000
     19318       792  TIP3      H2             29.0235650011      -17.1169141847       29.5249478006  TIP3      656             0.0000000000
     19319       793  TIP3      OH2            30.1119529287      -17.3980280206       30.7936163788  TIP3      657             0.0000000000
     19320       793  TIP3      H1             30.6531563330      -18.0833194281       30.3722011126  TIP3      657             0.0000000000
     19321       793  TIP3      H2             30.5361026941      -17.3233312261       31.6661493624  TIP3      657             0.0000000000
     19322       794  TIP3      OH2            26.3813545607      -32.4343181707       26.5821904346  TIP3      658             0.0000000000
     19323       794  TIP3      H1             25.9214847957      -32.7733485626       25.7910241843  TIP3      658             0.0000000000
     19324       794  TIP3      H2             27.2253396703      -32.9157828170       26.5635266313  TIP3      658             0.0000000000
     19325       795  TIP3      OH2            26.1453358155      -32.6442542138       23.5988903736  TIP3      659             0.0000000000
     19326       795  TIP3      H1             26.3229976292      -31.8937973676       22.9901106064  TIP3      659             0.0000000000
     19327       795  TIP3      H2             25.2045399749      -32.7842896942       23.3896011138  TIP3      659             0.0000000000
     19328       796  TIP3      OH2            31.0642223881       32.6654652625       27.1004956506  TIP3      660             0.0000000000
     19329       796  TIP3      H1             30.9528461755       33.3534762970       26.4104563539  TIP3      660             0.0000000000
     19330       796  TIP3      H2             31.5754732336       33.1649662981       27.7683404609  TIP3      660             0.0000000000
     19331       797  TIP3      OH2            26.8745955447      -30.4617832600       22.0124973308  TIP3      661             0.0000000000
     19332       797  TIP3      H1             27.3586673969      -30.6657624719       21.1936422761  TIP3      661             0.0000000000
     19333       797  TIP3      H2             27.6005178828      -30.1285580941       22.5823438272  TIP3      661             0.0000000000
     19334       798  TIP3      OH2            32.7928560965      -30.1282752352       22.5570131117  TIP3      662             0.0000000000
     19335       798  TIP3      H1             32.1205523506      -30.7122968823       22.9265015824  TIP3      662             0.0000000000
     19336       798  TIP3      H2             32.9915087736      -29.5749844000       23.3434620555  TIP3      662             0.0000000000
     19337       799  TIP3      OH2            25.6920980563      -31.8635601840       36.3569852142  TIP3      663             0.0000000000
     19338       799  TIP3      H1             25.1276730499      -32.6388249484       36.1946429179  TIP3      663             0.0000000000
     19339       799  TIP3      H2             26.4251452324      -32.2775327370       36.8526678735  TIP3      663             0.0000000000
     19340       800  TIP3      OH2            27.8864045646       33.3244581783       37.7054388528  TIP3      664             0.0000000000
     19341       800  TIP3      H1             28.8330349301       33.5712708323       37.7069025404  TIP3      664             0.0000000000
     19342       800  TIP3      H2             27.9081804909       32.3939955246       37.9979671027  TIP3      664             0.0000000000
     19343       801  TIP3      OH2           -20.6791037152       -4.5037429672       26.5850374117  TIP3      665             0.0000000000
     19344       801  TIP3      H1            -20.8491801259       -3.5404376340       26.7076635833  TIP3      665             0.0000000000
     19345       801  TIP3      H2            -21.1747434735       -4.8779012426       27.3291342407  TIP3      665             0.0000000000
     19346       802  TIP3      OH2           -22.1790609136       -5.7036595329       30.0342969055  TIP3      666             0.0000000000
     19347       802  TIP3      H1            -22.1123860574       -6.1461759573       30.9065609685  TIP3      666             0.0000000000
     19348       802  TIP3      H2            -22.8131778444       -6.2304102310       29.5144207905  TIP3      666             0.0000000000
     19349       803  TIP3      OH2           -29.5777817336       -5.5923905834       31.8048392503  TIP3      667             0.0000000000
     19350       803  TIP3      H1            -29.8363683669       -6.3312514226       32.3773581615  TIP3      667             0.0000000000
     19351       803  TIP3      H2            -29.1300397637       -5.0308558053       32.4640551886  TIP3      667             0.0000000000
     19352       804  TIP3      OH2           -18.8440963685       -2.4788363971       28.9036926836  TIP3      668             0.0000000000
     19353       804  TIP3      H1            -18.8979697301       -3.3046874753       29.4074604796  TIP3      668             0.0000000000
     19354       804  TIP3      H2            -18.6724050632       -1.8433430936       29.6212187840  TIP3      668             0.0000000000
     19355       805  TIP3      OH2           -29.4609044661       -1.3417959116       29.7880763873  TIP3      669             0.0000000000
     19356       805  TIP3      H1            -29.3506802093       -2.3094967434       29.6663448681  TIP3      669             0.0000000000
     19357       805  TIP3      H2            -28.5933686903       -1.1550349287       30.1816274104  TIP3      669             0.0000000000
     19358       806  TIP3      OH2           -32.3531032973       -7.1989139387       25.4943500420  TIP3      670             0.0000000000
     19359       806  TIP3      H1            -32.6490243411       -6.4065661323       25.9652136475  TIP3      670             0.0000000000
     19360       806  TIP3      H2            -33.0310054359       -7.8632927868       25.7389150583  TIP3      670             0.0000000000
     19361       807  TIP3      OH2           -31.6731794432       -5.3983196953       27.9568605233  TIP3      671             0.0000000000
     19362       807  TIP3      H1            -31.3112092065       -6.2259854442       28.3463995391  TIP3      671             0.0000000000
     19363       807  TIP3      H2            -30.9606968347       -5.1661363393       27.3498728473  TIP3      671             0.0000000000
     19364       808  TIP3      OH2           -20.4121108959        2.9826642430       29.2169295965  TIP3      672             0.0000000000
     19365       808  TIP3      H1            -20.0097171026        2.3199655216       28.6147781226  TIP3      672             0.0000000000
     19366       808  TIP3      H2            -21.3710574904        2.8016939142       29.0509872190  TIP3      672             0.0000000000
     19367       809  TIP3      OH2           -23.9879911466       -2.5548156588       31.1026941733  TIP3      673             0.0000000000
     19368       809  TIP3      H1            -23.7600979868       -2.5938678471       30.1662114374  TIP3      673             0.0000000000
     19369       809  TIP3      H2            -23.1035969568       -2.7096076061       31.4825562606  TIP3      673             0.0000000000
     19370       810  TIP3      OH2           -15.3718811510      -11.4498531118       30.9478667444  TIP3      674             0.0000000000
     19371       810  TIP3      H1            -14.9954266267      -10.9488004863       31.7068886559  TIP3      674             0.0000000000
     19372       810  TIP3      H2            -14.5793456454      -11.6230269555       30.4135708147  TIP3      674             0.0000000000
     19373       811  TIP3      OH2           -20.0356087938       -8.4397729616       31.0532149794  TIP3      675             0.0000000000
     19374       811  TIP3      H1            -20.0695953355       -9.4033838152       31.2303996538  TIP3      675             0.0000000000
     19375       811  TIP3      H2            -20.1192082427       -8.4513672992       30.0735632895  TIP3      675             0.0000000000
     19376       812  TIP3      OH2           -28.1390236651      -10.7054725039       27.9638996076  TIP3      676             0.0000000000
     19377       812  TIP3      H1            -27.6876336212      -10.0291579685       27.4186102019  TIP3      676             0.0000000000
     19378       812  TIP3      H2            -27.8482341187      -11.4948258195       27.4806331297  TIP3      676             0.0000000000
     19379       813  TIP3      OH2           -19.2780132066       -9.7723888947       26.7162927759  TIP3      677             0.0000000000
     19380       813  TIP3      H1            -18.9672917821      -10.4251713963       27.3926627459  TIP3      677             0.0000000000
     19381       813  TIP3      H2            -18.4123611369       -9.5866223797       26.2894795811  TIP3      677             0.0000000000
     19382       814  TIP3      OH2           -30.5800040621       -7.7522798986       28.7667899638  TIP3      678             0.0000000000
     19383       814  TIP3      H1            -30.1464931957       -8.4177885872       29.3347898901  TIP3      678             0.0000000000
     19384       814  TIP3      H2            -30.2499649935       -8.0003147493       27.8770994966  TIP3      678             0.0000000000
     19385       815  TIP3      OH2           -26.2478834413       -6.5761725644       28.1733990141  TIP3      679             0.0000000000
     19386       815  TIP3      H1            -25.4170200496       -7.0262599051       28.4345721172  TIP3      679             0.0000000000
     19387       815  TIP3      H2            -26.6676121988       -7.2661807925       27.6082515661  TIP3      679             0.0000000000
     19388       816  TIP3      OH2           -14.9218419469      -10.1250984535       33.2713557957  TIP3      680             0.0000000000
     19389       816  TIP3      H1            -15.4588382993       -9.3310159134       33.0204953396  TIP3      680             0.0000000000
     19390       816  TIP3      H2            -14.1950379975       -9.6787998410       33.7155626698  TIP3      680             0.0000000000
     19391       817  TIP3      OH2           -28.2627893207      -11.4982042800       32.6139968184  TIP3      681             0.0000000000
     19392       817  TIP3      H1            -28.4912018824      -10.9890588567       31.8146315812  TIP3      681             0.0000000000
     19393       817  TIP3      H2            -29.0781972175      -11.3355506216       33.1475042169  TIP3      681             0.0000000000
     19394       818  TIP3      OH2           -21.5004849579       -1.8811749940       26.0222505063  TIP3      682             0.0000000000
     19395       818  TIP3      H1            -21.9625517744       -1.7624586705       25.1853953328  TIP3      682             0.0000000000
     19396       818  TIP3      H2            -21.4857963989       -0.9638518016       26.3381547922  TIP3      682             0.0000000000
     19397       819  TIP3      OH2           -26.3208024960       -3.7993003814       32.2241139058  TIP3      683             0.0000000000
     19398       819  TIP3      H1            -26.9631824119       -3.0622286581       32.3427285296  TIP3      683             0.0000000000
     19399       819  TIP3      H2            -25.5893538048       -3.3007641101       31.7963989919  TIP3      683             0.0000000000
     19400       820  TIP3      OH2           -18.0003924755      -11.1083257934       28.6077125852  TIP3      684             0.0000000000
     19401       820  TIP3      H1            -17.7564269834      -11.5243974345       29.4482562504  TIP3      684             0.0000000000
     19402       820  TIP3      H2            -17.1830065936      -10.6092848647       28.4350036779  TIP3      684             0.0000000000
     19403       821  TIP3      OH2           -29.0420664512       -9.5381914764       30.3077239689  TIP3      685             0.0000000000
     19404       821  TIP3      H1            -28.4332152414       -8.8683242845       30.6984387552  TIP3      685             0.0000000000
     19405       821  TIP3      H2            -28.5503917763       -9.8695933066       29.5156035627  TIP3      685             0.0000000000
     19406       822  TIP3      OH2           -27.6848648496       -1.5277829966       32.9520143646  TIP3      686             0.0000000000
     19407       822  TIP3      H1            -27.6986323424       -0.5882120592       32.6945353049  TIP3      686             0.0000000000
     19408       822  TIP3      H2            -28.4510497770       -1.6139083895       33.5645722260  TIP3      686             0.0000000000
     19409       823  TIP3      OH2           -31.4020291104       -1.6746737529       23.3905399604  TIP3      687             0.0000000000
     19410       823  TIP3      H1            -31.2878436237       -1.9289841468       22.4302775076  TIP3      687             0.0000000000
     19411       823  TIP3      H2            -31.1961965752       -0.7355310627       23.3014876320  TIP3      687             0.0000000000
     19412       824  TIP3      OH2           -18.3473563576       -0.5160810055       30.9404529704  TIP3      688             0.0000000000
     19413       824  TIP3      H1            -19.3036410426       -0.4073308161       31.1261800374  TIP3      688             0.0000000000
     19414       824  TIP3      H2            -18.1261378789        0.4111077038       30.7191742408  TIP3      688             0.0000000000
     19415       825  TIP3      OH2           -17.7903366587      -11.5516246726       32.2556965217  TIP3      689             0.0000000000
     19416       825  TIP3      H1            -18.5307096726      -11.0975253874       31.8211711457  TIP3      689             0.0000000000
     19417       825  TIP3      H2            -17.0188600950      -11.3522844625       31.6803998115  TIP3      689             0.0000000000
     19418       826  TIP3      OH2           -24.8275730496      -13.9844775960       29.6051579577  TIP3      690             0.0000000000
     19419       826  TIP3      H1            -25.3700234037      -14.7644031981       29.4196162560  TIP3      690             0.0000000000
     19420       826  TIP3      H2            -25.5261198482      -13.3982245812       29.9679776383  TIP3      690             0.0000000000
     19421       827  TIP3      OH2           -19.4673926387        1.3008191794       27.2099873660  TIP3      691             0.0000000000
     19422       827  TIP3      H1            -19.2033360601        0.4714022453       26.7365653449  TIP3      691             0.0000000000
     19423       827  TIP3      H2            -18.5932114115        1.7293997354       27.3461074094  TIP3      691             0.0000000000
     19424       828  TIP3      OH2           -18.3173592318       -0.8712211493       26.1673894929  TIP3      692             0.0000000000
     19425       828  TIP3      H1            -18.2876147106       -1.5527318456       25.4571728566  TIP3      692             0.0000000000
     19426       828  TIP3      H2            -18.5279281695       -1.4553690792       26.9188930766  TIP3      692             0.0000000000
     19427       829  TIP3      OH2           -16.9555922336       -2.2750916825       34.5912156311  TIP3      693             0.0000000000
     19428       829  TIP3      H1            -16.6738812728       -2.8877057372       33.8686489567  TIP3      693             0.0000000000
     19429       829  TIP3      H2            -16.8323308612       -1.4279182540       34.1339363700  TIP3      693             0.0000000000
     19430       830  TIP3      OH2           -22.1222455649       -5.1379826437       24.0609304349  TIP3      694             0.0000000000
     19431       830  TIP3      H1            -22.8160841752       -4.4580144469       23.9640322253  TIP3      694             0.0000000000
     19432       830  TIP3      H2            -21.5677901158       -4.7416791054       24.7664985369  TIP3      694             0.0000000000
     19433       831  TIP3      OH2           -14.9572001428       -5.7468666055       32.7685912518  TIP3      695             0.0000000000
     19434       831  TIP3      H1            -15.5345106522       -4.9560064810       32.6847567681  TIP3      695             0.0000000000
     19435       831  TIP3      H2            -14.2618378904       -5.5044711810       32.1224619585  TIP3      695             0.0000000000
     19436       832  TIP3      OH2           -18.5061925023       -5.1280363525       24.8974176534  TIP3      696             0.0000000000
     19437       832  TIP3      H1            -19.2337746509       -5.0284075621       25.5450558661  TIP3      696             0.0000000000
     19438       832  TIP3      H2            -17.8598598184       -5.6539942256       25.4050334863  TIP3      696             0.0000000000
     19439       833  TIP3      OH2           -18.6209668201       -6.8524866169       34.5653037641  TIP3      697             0.0000000000
     19440       833  TIP3      H1            -18.7609166893       -5.9091363213       34.7310661007  TIP3      697             0.0000000000
     19441       833  TIP3      H2            -19.0987287221       -6.9761556825       33.7241314561  TIP3      697             0.0000000000
     19442       834  TIP3      OH2           -27.3496814859       -4.3648019363       27.1339843341  TIP3      698             0.0000000000
     19443       834  TIP3      H1            -28.0387379553       -4.6949361697       26.5239144459  TIP3      698             0.0000000000
     19444       834  TIP3      H2            -26.8932121176       -5.1921937486       27.4173308919  TIP3      698             0.0000000000
     19445       835  TIP3      OH2           -26.4357750706       -1.4901849197       29.6790844501  TIP3      699             0.0000000000
     19446       835  TIP3      H1            -26.3603410424       -1.3326612277       28.7212631187  TIP3      699             0.0000000000
     19447       835  TIP3      H2            -25.5223439211       -1.5181496946       30.0104092626  TIP3      699             0.0000000000
     19448       836  TIP3      OH2           -26.8301401350       -5.9715798494       30.7721495016  TIP3      700             0.0000000000
     19449       836  TIP3      H1            -26.7067234874       -5.8166894038       29.8111442539  TIP3      700             0.0000000000
     19450       836  TIP3      H2            -26.7365794551       -5.0826255071       31.1794110466  TIP3      700             0.0000000000
     19451       837  TIP3      OH2           -20.8975345197       -0.0976591949       31.5191565746  TIP3      701             0.0000000000
     19452       837  TIP3      H1            -20.9971469992        0.7211083573       32.0492882778  TIP3      701             0.0000000000
     19453       837  TIP3      H2            -21.5178091984        0.0343089028       30.7889058091  TIP3      701             0.0000000000
     19454       838  TIP3      OH2           -26.1335503375       -1.5019974711       35.4495905939  TIP3      702             0.0000000000
     19455       838  TIP3      H1            -26.7346985485       -0.8436442159       35.8779385060  TIP3      702             0.0000000000
     19456       838  TIP3      H2            -26.5866211731       -1.6686293537       34.5964143068  TIP3      702             0.0000000000
     19457       839  TIP3      OH2           -28.8498329834       -5.1440659233       34.3886067766  TIP3      703             0.0000000000
     19458       839  TIP3      H1            -28.6787886321       -4.5727152194       35.1735787613  TIP3      703             0.0000000000
     19459       839  TIP3      H2            -29.6988000041       -5.5576075591       34.6413445849  TIP3      703             0.0000000000
     19460       840  TIP3      OH2           -22.5840290266        1.1161808717       25.8898347314  TIP3      704             0.0000000000
     19461       840  TIP3      H1            -22.6269794007        0.9308217247       26.8405264119  TIP3      704             0.0000000000
     19462       840  TIP3      H2            -22.9180104063        2.0273233617       25.9439433127  TIP3      704             0.0000000000
     19463       841  TIP3      OH2           -27.5331842728        0.6564320781       36.4009843920  TIP3      705             0.0000000000
     19464       841  TIP3      H1            -27.4161237101        1.1892754345       35.5906564457  TIP3      705             0.0000000000
     19465       841  TIP3      H2            -28.5111801129        0.5840455372       36.4394499820  TIP3      705             0.0000000000
     19466       842  TIP3      OH2           -16.6842372227      -13.8796771659       23.2342929962  TIP3      706             0.0000000000
     19467       842  TIP3      H1            -17.6183287419      -13.5771038431       23.2945672835  TIP3      706             0.0000000000
     19468       842  TIP3      H2            -16.2259196008      -13.0500362968       23.0330047546  TIP3      706             0.0000000000
     19469       843  TIP3      OH2           -29.3759601059       -5.4140441091       25.3828648451  TIP3      707             0.0000000000
     19470       843  TIP3      H1            -29.4269478002       -5.1292689830       24.4598145245  TIP3      707             0.0000000000
     19471       843  TIP3      H2            -29.5607000965       -6.3720568656       25.3117037927  TIP3      707             0.0000000000
     19472       844  TIP3      OH2           -31.7807492497       -3.1984333177       34.6396748846  TIP3      708             0.0000000000
     19473       844  TIP3      H1            -32.5983613895       -3.1477519504       34.1228578461  TIP3      708             0.0000000000
     19474       844  TIP3      H2            -31.5262121671       -4.1334801688       34.4926213421  TIP3      708             0.0000000000
     19475       845  TIP3      OH2           -32.2143976306        0.2051364088       30.4236724817  TIP3      709             0.0000000000
     19476       845  TIP3      H1            -31.2889325488       -0.0155502890       30.2199002167  TIP3      709             0.0000000000
     19477       845  TIP3      H2            -32.1527343553        0.3898314123       31.3828943445  TIP3      709             0.0000000000
     19478       846  TIP3      OH2           -14.2816707581        0.4955478941       36.0283511521  TIP3      710             0.0000000000
     19479       846  TIP3      H1            -14.3786255916       -0.4684130687       35.9911336090  TIP3      710             0.0000000000
     19480       846  TIP3      H2            -15.1390153793        0.7162121420       36.4616745730  TIP3      710             0.0000000000
     19481       847  TIP3      OH2           -23.8588426635        0.0664409812       34.8688357534  TIP3      711             0.0000000000
     19482       847  TIP3      H1            -23.7056727927        0.8601834732       35.4383429459  TIP3      711             0.0000000000
     19483       847  TIP3      H2            -24.6917008419       -0.3005032701       35.2318143200  TIP3      711             0.0000000000
     19484       848  TIP3      OH2           -23.1322087317        3.6738329797       24.2029877406  TIP3      712             0.0000000000
     19485       848  TIP3      H1            -22.6334579652        4.1885528017       23.5523389790  TIP3      712             0.0000000000
     19486       848  TIP3      H2            -23.3090347778        4.3847235594       24.8523658339  TIP3      712             0.0000000000
     19487       849  TIP3      OH2           -28.9621820907        2.5603836083       26.4318705085  TIP3      713             0.0000000000
     19488       849  TIP3      H1            -28.6162653205        2.3977641730       27.3370715639  TIP3      713             0.0000000000
     19489       849  TIP3      H2            -29.8689828460        2.2190112676       26.5260232168  TIP3      713             0.0000000000
     19490       850  TIP3      OH2           -18.4385698018        2.5959855775       21.3599377440  TIP3      714             0.0000000000
     19491       850  TIP3      H1            -18.8531873302        2.0151602638       20.6742765022  TIP3      714             0.0000000000
     19492       850  TIP3      H2            -18.6701972415        2.0906539595       22.1445005278  TIP3      714             0.0000000000
     19493       851  TIP3      OH2           -20.0368260629        2.9934644955       25.1055750729  TIP3      715             0.0000000000
     19494       851  TIP3      H1            -20.9805032014        2.8669574467       25.2920687971  TIP3      715             0.0000000000
     19495       851  TIP3      H2            -19.6480583012        2.4013496563       25.7861628630  TIP3      715             0.0000000000
     19496       852  TIP3      OH2           -16.7356661865       -8.3958335569       36.0494892352  TIP3      716             0.0000000000
     19497       852  TIP3      H1            -17.5086648072       -7.9025919175       35.7261960267  TIP3      716             0.0000000000
     19498       852  TIP3      H2            -16.8472121807       -9.2718379177       35.6332203484  TIP3      716             0.0000000000
     19499       853  TIP3      OH2           -29.6193231785       -1.6106498840       34.8091280872  TIP3      717             0.0000000000
     19500       853  TIP3      H1            -29.3964192569       -1.7335493702       35.7490493503  TIP3      717             0.0000000000
     19501       853  TIP3      H2            -30.5014733822       -2.0638731935       34.7434652521  TIP3      717             0.0000000000
     19502       854  TIP3      OH2           -27.2191789532      -13.0457580672       30.6573241038  TIP3      718             0.0000000000
     19503       854  TIP3      H1            -28.0679473027      -12.9704719435       30.1612446689  TIP3      718             0.0000000000
     19504       854  TIP3      H2            -27.4748015193      -12.5969957782       31.4839868309  TIP3      718             0.0000000000
     19505       855  TIP3      OH2           -22.6136298531      -13.5756594958       33.7492530448  TIP3      719             0.0000000000
     19506       855  TIP3      H1            -22.0888410340      -14.0587440149       34.4316888293  TIP3      719             0.0000000000
     19507       855  TIP3      H2            -23.5247890870      -13.5818685812       34.0921453968  TIP3      719             0.0000000000
     19508       856  TIP3      OH2           -19.5110208243       -9.4602526167       34.9985865746  TIP3      720             0.0000000000
     19509       856  TIP3      H1            -20.0466472891       -9.6435682052       35.7954357240  TIP3      720             0.0000000000
     19510       856  TIP3      H2            -19.3150608037       -8.5140632210       35.0920448461  TIP3      720             0.0000000000
     19511       857  TIP3      OH2           -22.6033062359      -11.4993395834       21.4900435607  TIP3      721             0.0000000000
     19512       857  TIP3      H1            -23.1980564375      -11.6545193414       22.2640243857  TIP3      721             0.0000000000
     19513       857  TIP3      H2            -23.1925883863      -11.1055009770       20.8402810701  TIP3      721             0.0000000000
     19514       858  TIP3      OH2           -27.0247791677       -8.4154277715       31.8014617143  TIP3      722             0.0000000000
     19515       858  TIP3      H1            -27.5591579042       -8.2127089093       32.5895024195  TIP3      722             0.0000000000
     19516       858  TIP3      H2            -26.9124037340       -7.5002639216       31.4376123450  TIP3      722             0.0000000000
     19517       859  TIP3      OH2           -27.3828053857       -8.4727276039       26.5060749042  TIP3      723             0.0000000000
     19518       859  TIP3      H1            -28.3490066894       -8.3183668211       26.3823872677  TIP3      723             0.0000000000
     19519       859  TIP3      H2            -27.1552274332       -8.7907918843       25.5940986377  TIP3      723             0.0000000000
     19520       860  TIP3      OH2           -21.5636065025       -7.2472863182       25.7101959339  TIP3      724             0.0000000000
     19521       860  TIP3      H1            -21.6139570443       -6.5645393566       25.0075928708  TIP3      724             0.0000000000
     19522       860  TIP3      H2            -21.2549832404       -8.0350179566       25.2453297583  TIP3      724             0.0000000000
     19523       861  TIP3      OH2           -22.4943844761       -6.7681091445       36.4836508050  TIP3      725             0.0000000000
     19524       861  TIP3      H1            -23.0798949797       -7.5271244900       36.6569954126  TIP3      725             0.0000000000
     19525       861  TIP3      H2            -21.7671511242       -7.0144889494       37.0965151643  TIP3      725             0.0000000000
     19526       862  TIP3      OH2           -20.4156711327       -7.9615487896       28.4225138762  TIP3      726             0.0000000000
     19527       862  TIP3      H1            -20.7548082572       -7.2433103260       27.8533076402  TIP3      726             0.0000000000
     19528       862  TIP3      H2            -20.1522113398       -8.6057597730       27.7283328367  TIP3      726             0.0000000000
     19529       863  TIP3      OH2           -30.1271089419       -8.3701232038       33.0446773196  TIP3      727             0.0000000000
     19530       863  TIP3      H1            -30.3808149451       -8.1192554785       33.9468827181  TIP3      727             0.0000000000
     19531       863  TIP3      H2            -30.2086559377       -9.3462480741       33.1011730040  TIP3      727             0.0000000000
     19532       864  TIP3      OH2           -31.4731513839      -10.5669579530       27.6318583166  TIP3      728             0.0000000000
     19533       864  TIP3      H1            -31.4725912031      -10.7073569326       28.6127473835  TIP3      728             0.0000000000
     19534       864  TIP3      H2            -30.6984855517      -11.0950345396       27.3843577498  TIP3      728             0.0000000000
     19535       865  TIP3      OH2           -31.7788557886       -9.7934180455       22.3616567051  TIP3      729             0.0000000000
     19536       865  TIP3      H1            -31.4284601621       -9.7962719025       21.4469219234  TIP3      729             0.0000000000
     19537       865  TIP3      H2            -31.2722804090       -9.0548997845       22.7315435032  TIP3      729             0.0000000000
     19538       866  TIP3      OH2           -21.3330232036       -6.6626620084       32.5321359073  TIP3      730             0.0000000000
     19539       866  TIP3      H1            -20.7780691460       -7.3233250646       32.0435959613  TIP3      730             0.0000000000
     19540       866  TIP3      H2            -21.8921602055       -7.2760453437       33.0712850110  TIP3      730             0.0000000000
     19541       867  TIP3      OH2           -24.6733919696      -10.5903208382       27.6086730959  TIP3      731             0.0000000000
     19542       867  TIP3      H1            -25.3754887958      -10.4159691156       28.2446951638  TIP3      731             0.0000000000
     19543       867  TIP3      H2            -23.9492805348      -10.9527219747       28.1721903213  TIP3      731             0.0000000000
     19544       868  TIP3      OH2           -30.0185746123       -8.2933357697       26.1211670221  TIP3      732             0.0000000000
     19545       868  TIP3      H1            -30.8785908224       -7.8540266845       25.9018950808  TIP3      732             0.0000000000
     19546       868  TIP3      H2            -30.1954790781       -9.1899610383       25.7961372887  TIP3      732             0.0000000000
     19547       869  TIP3      OH2           -26.8375992408       -9.4067440934       24.0019168478  TIP3      733             0.0000000000
     19548       869  TIP3      H1            -25.9057757814       -9.6638149008       24.0267380576  TIP3      733             0.0000000000
     19549       869  TIP3      H2            -27.1712207087       -9.9064936919       23.2305913864  TIP3      733             0.0000000000
     19550       870  TIP3      OH2           -20.2111761826      -11.2352953595       30.9082432250  TIP3      734             0.0000000000
     19551       870  TIP3      H1            -20.8496729260      -11.4756056464       31.6058340126  TIP3      734             0.0000000000
     19552       870  TIP3      H2            -20.2704460078      -11.9463402777       30.2604366745  TIP3      734             0.0000000000
     19553       871  TIP3      OH2           -17.3382231399        4.4901189351       37.2168962294  TIP3      735             0.0000000000
     19554       871  TIP3      H1            -16.8865328114        4.7514080386       36.3837148242  TIP3      735             0.0000000000
     19555       871  TIP3      H2            -16.7781722459        4.9512950383       37.8620082809  TIP3      735             0.0000000000
     19556       872  TIP3      OH2           -29.0233318095       -3.8203969500       36.7970126951  TIP3      736             0.0000000000
     19557       872  TIP3      H1            -28.5009096871       -3.5871213720       37.5985568382  TIP3      736             0.0000000000
     19558       872  TIP3      H2            -29.9329439436       -3.5374231487       36.9687075835  TIP3      736             0.0000000000
     19559       873  TIP3      OH2           -23.8764664881       -7.9094443304       29.0014032927  TIP3      737             0.0000000000
     19560       873  TIP3      H1            -22.9285226786       -8.1423764504       28.9434415392  TIP3      737             0.0000000000
     19561       873  TIP3      H2            -24.1983599848       -8.5768081421       29.6266758542  TIP3      737             0.0000000000
     19562       874  TIP3      OH2           -28.2491726260      -11.8467305417       25.1638434517  TIP3      738             0.0000000000
     19563       874  TIP3      H1            -28.2677984032      -12.7322954879       25.5369738691  TIP3      738             0.0000000000
     19564       874  TIP3      H2            -28.0721737384      -12.0097834177       24.2158801346  TIP3      738             0.0000000000
     19565       875  TIP3      OH2           -24.9352884735      -10.0795940840       31.3452743135  TIP3      739             0.0000000000
     19566       875  TIP3      H1            -25.7598400237       -9.5420368604       31.3913960907  TIP3      739             0.0000000000
     19567       875  TIP3      H2            -24.3255468174       -9.5845285701       31.9197561938  TIP3      739             0.0000000000
     19568       876  TIP3      OH2           -24.0356719030       -3.0155515503       23.9186728626  TIP3      740             0.0000000000
     19569       876  TIP3      H1            -24.7326885358       -3.4575647944       23.3964558905  TIP3      740             0.0000000000
     19570       876  TIP3      H2            -24.5486249866       -2.7472866653       24.7146376240  TIP3      740             0.0000000000
     19571       877  TIP3      OH2           -16.5810849365       -3.6631777160       32.4127980485  TIP3      741             0.0000000000
     19572       877  TIP3      H1            -16.0492323636       -3.0322645091       31.8658941157  TIP3      741             0.0000000000
     19573       877  TIP3      H2            -17.2442769800       -3.9535214147       31.7637732834  TIP3      741             0.0000000000
     19574       878  TIP3      OH2           -20.9034550728       -9.6493424896       22.6909104972  TIP3      742             0.0000000000
     19575       878  TIP3      H1            -21.6076661832      -10.1354140086       22.2290084051  TIP3      742             0.0000000000
     19576       878  TIP3      H2            -20.3022164176       -9.5154992413       21.9430111365  TIP3      742             0.0000000000
     19577       879  TIP3      OH2           -23.4010310195       -2.7104535376       35.0185325209  TIP3      743             0.0000000000
     19578       879  TIP3      H1            -23.7757158615       -2.8594078961       35.9038771466  TIP3      743             0.0000000000
     19579       879  TIP3      H2            -23.4526199162       -1.7428023567       34.9297520847  TIP3      743             0.0000000000
     19580       880  TIP3      OH2           -29.0257635480       -4.0265352064       29.3503491055  TIP3      744             0.0000000000
     19581       880  TIP3      H1            -28.2886747019       -4.0705774948       28.7128070535  TIP3      744             0.0000000000
     19582       880  TIP3      H2            -28.7905819447       -4.7305495085       29.9858090153  TIP3      744             0.0000000000
     19583       881  TIP3      OH2           -21.6233535143       -1.9497589606       22.7115578300  TIP3      745             0.0000000000
     19584       881  TIP3      H1            -21.9971894408       -1.0465025811       22.6738908300  TIP3      745             0.0000000000
     19585       881  TIP3      H2            -22.3871380632       -2.4681562865       23.0208785071  TIP3      745             0.0000000000
     19586       882  TIP3      OH2           -31.4465257758       -5.9396714178       34.4966304073  TIP3      746             0.0000000000
     19587       882  TIP3      H1            -31.4512879480       -6.2976159532       35.4071462999  TIP3      746             0.0000000000
     19588       882  TIP3      H2            -32.3892072908       -6.0861672707       34.2476996206  TIP3      746             0.0000000000
     19589       883  TIP3      OH2           -25.6927039237       -5.7151858749       36.3766319698  TIP3      747             0.0000000000
     19590       883  TIP3      H1            -26.1750223051       -6.1194988458       35.6325035223  TIP3      747             0.0000000000
     19591       883  TIP3      H2            -24.8613058020       -6.2052630841       36.2950216703  TIP3      747             0.0000000000
     19592       884  TIP3      OH2           -20.1783927937       -0.7385430111       35.1964593699  TIP3      748             0.0000000000
     19593       884  TIP3      H1            -20.9185542664       -0.5100513449       34.6176730189  TIP3      748             0.0000000000
     19594       884  TIP3      H2            -20.3999445763       -0.1710446814       35.9647774294  TIP3      748             0.0000000000
     19595       885  TIP3      OH2           -15.0268075457       -9.2065366861       23.7504968639  TIP3      749             0.0000000000
     19596       885  TIP3      H1            -15.2304124388       -8.8943925654       22.8424694882  TIP3      749             0.0000000000
     19597       885  TIP3      H2            -14.5122219087       -8.4566355094       24.0889028271  TIP3      749             0.0000000000
     19598       886  TIP3      OH2           -14.5158780097       -2.4783149477       35.9660635345  TIP3      750             0.0000000000
     19599       886  TIP3      H1            -15.4481003163       -2.3710453166       35.6688085062  TIP3      750             0.0000000000
     19600       886  TIP3      H2            -14.0548492342       -2.6103257574       35.1039264393  TIP3      750             0.0000000000
     19601       887  TIP3      OH2           -16.9197246536        0.5857105676       23.9826218147  TIP3      751             0.0000000000
     19602       887  TIP3      H1            -17.0983816769        0.0831692683       24.7935792724  TIP3      751             0.0000000000
     19603       887  TIP3      H2            -17.5143807397        0.1284021136       23.3521516216  TIP3      751             0.0000000000
     19604       888  TIP3      OH2           -19.0506289960       -4.7593621412       30.6823958615  TIP3      752             0.0000000000
     19605       888  TIP3      H1            -19.9827098042       -4.9999946012       30.5479833527  TIP3      752             0.0000000000
     19606       888  TIP3      H2            -18.5955931122       -5.3724877466       30.0533081958  TIP3      752             0.0000000000
     19607       889  TIP3      OH2           -27.1190529129       -0.1975972510       27.2153714875  TIP3      753             0.0000000000
     19608       889  TIP3      H1            -26.5361268327        0.5384534071       26.9167663447  TIP3      753             0.0000000000
     19609       889  TIP3      H2            -27.9275361132       -0.0148674493       26.7264677057  TIP3      753             0.0000000000
     19610       890  TIP3      OH2           -25.5518632750       -2.3839624402       26.4424378081  TIP3      754             0.0000000000
     19611       890  TIP3      H1            -26.0443211127       -1.5501405121       26.5622900774  TIP3      754             0.0000000000
     19612       890  TIP3      H2            -26.1416725455       -3.0471145611       26.8592151972  TIP3      754             0.0000000000
     19613       891  TIP3      OH2           -25.0037011893        1.8578073126       33.2554705995  TIP3      755             0.0000000000
     19614       891  TIP3      H1            -24.2513934673        2.2717974197       32.7844373771  TIP3      755             0.0000000000
     19615       891  TIP3      H2            -24.5210544125        1.1863077763       33.7949671440  TIP3      755             0.0000000000
     19616       892  TIP3      OH2           -26.0466776514        2.0275269776       26.1755283988  TIP3      756             0.0000000000
     19617       892  TIP3      H1            -26.9448458733        2.3937961377       26.1764973632  TIP3      756             0.0000000000
     19618       892  TIP3      H2            -25.5696305335        2.7782485761       26.5796177843  TIP3      756             0.0000000000
     19619       893  TIP3      OH2           -21.1579506956       -2.6398284017       32.2678654145  TIP3      757             0.0000000000
     19620       893  TIP3      H1            -21.1906862374       -1.6584356814       32.2247743471  TIP3      757             0.0000000000
     19621       893  TIP3      H2            -20.2079229434       -2.7745282357       32.1072291621  TIP3      757             0.0000000000
     19622       894  TIP3      OH2           -18.6455961516       -0.8372008724       22.4710777128  TIP3      758             0.0000000000
     19623       894  TIP3      H1            -18.4717470639       -1.5514054874       23.1302395633  TIP3      758             0.0000000000
     19624       894  TIP3      H2            -19.5412062821       -1.0860665044       22.2030292562  TIP3      758             0.0000000000
     19625       895  TIP3      OH2           -18.4117697967        2.0782170702       34.5116573170  TIP3      759             0.0000000000
     19626       895  TIP3      H1            -19.3115701106        1.7787825405       34.2760015378  TIP3      759             0.0000000000
     19627       895  TIP3      H2            -18.2431051383        2.7508162630       33.8302552295  TIP3      759             0.0000000000
     19628       896  TIP3      OH2           -30.5994475098      -10.8768138232       33.9783128062  TIP3      760             0.0000000000
     19629       896  TIP3      H1            -30.8858195329      -10.3007629602       34.7329303640  TIP3      760             0.0000000000
     19630       896  TIP3      H2            -31.1363973758      -11.6693908485       34.1449691971  TIP3      760             0.0000000000
     19631       897  TIP3      OH2           -18.0110265819       -2.6392766399       24.2524476260  TIP3      761             0.0000000000
     19632       897  TIP3      H1            -18.3142139551       -3.5532107525       24.4525651695  TIP3      761             0.0000000000
     19633       897  TIP3      H2            -17.0443064069       -2.8077365332       24.1238798260  TIP3      761             0.0000000000
     19634       898  TIP3      OH2           -30.8098023583        0.3624920186       33.0324114017  TIP3      762             0.0000000000
     19635       898  TIP3      H1            -30.3362928157       -0.4264407908       33.3639450438  TIP3      762             0.0000000000
     19636       898  TIP3      H2            -30.0897655746        1.0092253439       32.9866337956  TIP3      762             0.0000000000
     19637       899  TIP3      OH2           -26.3074549844       -1.1274869294       22.5109304347  TIP3      763             0.0000000000
     19638       899  TIP3      H1            -25.3512249657       -1.0782858430       22.6234302398  TIP3      763             0.0000000000
     19639       899  TIP3      H2            -26.5732697750       -0.2054116081       22.4698525554  TIP3      763             0.0000000000
     19640       900  TIP3      OH2           -21.5096320311      -11.0552219119       33.4748364730  TIP3      764             0.0000000000
     19641       900  TIP3      H1            -21.1484649126      -10.7245133575       34.3200045003  TIP3      764             0.0000000000
     19642       900  TIP3      H2            -21.9489682558      -11.8894191682       33.7431468732  TIP3      764             0.0000000000
     19643       901  TIP3      OH2           -20.7936080731      -11.2291280314       25.0676524165  TIP3      765             0.0000000000
     19644       901  TIP3      H1            -20.7128376317      -10.6923441108       24.2486314385  TIP3      765             0.0000000000
     19645       901  TIP3      H2            -20.2280292015      -10.7089191882       25.6875514919  TIP3      765             0.0000000000
     19646       902  TIP3      OH2           -22.8351604365        0.7100937596       22.9351517046  TIP3      766             0.0000000000
     19647       902  TIP3      H1            -23.3643860307        0.9870370815       23.7020910952  TIP3      766             0.0000000000
     19648       902  TIP3      H2            -22.0579724056        1.2658661761       23.0748140299  TIP3      766             0.0000000000
     19649       903  TIP3      OH2           -23.9550973141       -9.3173009256       25.2808283120  TIP3      767             0.0000000000
     19650       903  TIP3      H1            -23.8463581370       -8.4370325603       25.6589455668  TIP3      767             0.0000000000
     19651       903  TIP3      H2            -24.3365619628       -9.8213361734       26.0327270968  TIP3      767             0.0000000000
     19652       904  TIP3      OH2           -22.4960006502       -8.5001546974       34.0617861393  TIP3      768             0.0000000000
     19653       904  TIP3      H1            -22.1791840964       -8.5709373408       34.9797320963  TIP3      768             0.0000000000
     19654       904  TIP3      H2            -22.3282654482       -9.4100376384       33.7377490425  TIP3      768             0.0000000000
     19655       905  TIP3      OH2           -23.1158345058      -12.6700961693       25.8665587510  TIP3      769             0.0000000000
     19656       905  TIP3      H1            -23.3373670190      -12.2338382316       26.7126881685  TIP3      769             0.0000000000
     19657       905  TIP3      H2            -22.2601105707      -12.2155652174       25.6908078001  TIP3      769             0.0000000000
     19658       906  TIP3      OH2           -25.7539411810        2.7007909538       23.3079466768  TIP3      770             0.0000000000
     19659       906  TIP3      H1            -25.0851528982        3.3173052853       23.6643362728  TIP3      770             0.0000000000
     19660       906  TIP3      H2            -26.1096352719        2.3376567140       24.1360780236  TIP3      770             0.0000000000
     19661       907  TIP3      OH2           -17.1786824205      -11.0430390347       34.9589442776  TIP3      771             0.0000000000
     19662       907  TIP3      H1            -18.1210794679      -10.7674094817       34.9545026740  TIP3      771             0.0000000000
     19663       907  TIP3      H2            -16.9564894273      -10.9690732050       34.0068625935  TIP3      771             0.0000000000
     19664       908  TIP3      OH2           -18.0217951880       -6.6066783140       28.9075469456  TIP3      772             0.0000000000
     19665       908  TIP3      H1            -18.7675789335       -7.2377581591       28.8792310144  TIP3      772             0.0000000000
     19666       908  TIP3      H2            -17.3350374668       -7.1526049408       29.3631757704  TIP3      772             0.0000000000
     19667       909  TIP3      OH2           -31.0441142124       -8.1731052628       20.2105293939  TIP3      773             0.0000000000
     19668       909  TIP3      H1            -30.2559108831       -7.6420736139       20.4238910394  TIP3      773             0.0000000000
     19669       909  TIP3      H2            -30.9617950097       -8.1842832538       19.2486847343  TIP3      773             0.0000000000
     19670       910  TIP3      OH2           -17.8272585710        2.2698145516       30.7721323186  TIP3      774             0.0000000000
     19671       910  TIP3      H1            -17.9717589744        2.8522862498       30.0051726805  TIP3      774             0.0000000000
     19672       910  TIP3      H2            -16.8486565395        2.2699155405       30.8396390715  TIP3      774             0.0000000000
     19673       911  TIP3      OH2           -29.6522834191      -13.2900742623       29.5871445322  TIP3      775             0.0000000000
     19674       911  TIP3      H1            -29.5072180409      -13.3399640466       28.6184546379  TIP3      775             0.0000000000
     19675       911  TIP3      H2            -29.9476891990      -14.2104079272       29.7716499577  TIP3      775             0.0000000000
     19676       912  TIP3      OH2           -30.8688865177        0.3785619698       26.0966884182  TIP3      776             0.0000000000
     19677       912  TIP3      H1            -31.4255144147        1.0875053872       25.6824556099  TIP3      776             0.0000000000
     19678       912  TIP3      H2            -30.1051729696        0.3816770655       25.5082643245  TIP3      776             0.0000000000
     19679       913  TIP3      OH2           -32.3955939838        2.9948759921       36.5103083918  TIP3      777             0.0000000000
     19680       913  TIP3      H1            -31.7522867789        3.1377341316       37.2254541273  TIP3      777             0.0000000000
     19681       913  TIP3      H2            -32.8347751212        2.1846586291       36.8008015057  TIP3      777             0.0000000000
     19682       914  TIP3      OH2           -27.0698274009        1.8507444766       38.9323805467  TIP3      778             0.0000000000
     19683       914  TIP3      H1            -26.1123801205        1.6480388236       38.9292467323  TIP3      778             0.0000000000
     19684       914  TIP3      H2            -27.2970913850        1.4266590096       38.0834505467  TIP3      778             0.0000000000
     19685       915  TIP3      OH2           -20.7655585946        0.9334621529       37.3959819300  TIP3      779             0.0000000000
     19686       915  TIP3      H1            -21.0826899354        0.0529200139       37.7204669273  TIP3      779             0.0000000000
     19687       915  TIP3      H2            -19.8785631205        0.9344805293       37.8091221875  TIP3      779             0.0000000000
     19688       916  TIP3      OH2           -31.8819610563       -3.0413128060       37.8559805580  TIP3      780             0.0000000000
     19689       916  TIP3      H1            -32.3209372321       -3.7849847908       37.4100492514  TIP3      780             0.0000000000
     19690       916  TIP3      H2            -32.5992150829       -2.3821367875       37.8396271717  TIP3      780             0.0000000000
     19691       917  TIP3      OH2           -25.0609167217       -3.2341480229       37.1984545418  TIP3      781             0.0000000000
     19692       917  TIP3      H1            -25.4625527889       -2.6423982905       36.5131865809  TIP3      781             0.0000000000
     19693       917  TIP3      H2            -25.2916538304       -4.1389127534       36.8780887599  TIP3      781             0.0000000000
     19694       918  TIP3      OH2           -19.3929883161       -3.4211157939       34.8468955598  TIP3      782             0.0000000000
     19695       918  TIP3      H1            -18.4552529909       -3.1060224808       34.7994781258  TIP3      782             0.0000000000
     19696       918  TIP3      H2            -19.8128922585       -2.5408013429       35.0260323019  TIP3      782             0.0000000000
     19697       919  TIP3      OH2           -31.2528754052       -6.3051311426       37.8091057588  TIP3      783             0.0000000000
     19698       919  TIP3      H1            -30.5838629442       -7.0028851515       37.9126451559  TIP3      783             0.0000000000
     19699       919  TIP3      H2            -30.8932389954       -5.6029825332       38.3894937679  TIP3      783             0.0000000000
     19700       920  TIP3      OH2           -26.0112991097       -4.6578725284       22.6200555898  TIP3      784             0.0000000000
     19701       920  TIP3      H1            -26.1712940841       -5.1915691969       23.4102760699  TIP3      784             0.0000000000
     19702       920  TIP3      H2            -25.5205607272       -5.2725198549       22.0555739028  TIP3      784             0.0000000000
     19703       921  TIP3      OH2           -26.8197483784       -6.8753706973       34.1387775711  TIP3      785             0.0000000000
     19704       921  TIP3      H1            -27.6229251988       -6.3118480673       34.2347736187  TIP3      785             0.0000000000
     19705       921  TIP3      H2            -26.3258457502       -6.3619685359       33.4799545465  TIP3      785             0.0000000000
     19706       922  TIP3      OH2           -21.4624958336       -4.2506023746       38.0248366700  TIP3      786             0.0000000000
     19707       922  TIP3      H1            -20.6679500796       -4.7497686007       37.7659371103  TIP3      786             0.0000000000
     19708       922  TIP3      H2            -21.9395059543       -4.8945734216       38.5817981736  TIP3      786             0.0000000000
     19709       923  TIP3      OH2           -26.4488508871       -9.0925715947       35.5397718049  TIP3      787             0.0000000000
     19710       923  TIP3      H1            -26.2226150513       -9.7938963198       34.8907604922  TIP3      787             0.0000000000
     19711       923  TIP3      H2            -26.6134765939       -8.3171638955       34.9531517356  TIP3      787             0.0000000000
     19712       924  TIP3      OH2           -25.8194004983      -11.1038392645       33.6936528448  TIP3      788             0.0000000000
     19713       924  TIP3      H1            -25.4695203693      -10.8996444501       32.7973008447  TIP3      788             0.0000000000
     19714       924  TIP3      H2            -26.7802908476      -11.1448874813       33.4857970429  TIP3      788             0.0000000000
     19715       925  TIP3      OH2           -24.3394441112       -5.2704332851       33.6703367809  TIP3      789             0.0000000000
     19716       925  TIP3      H1            -23.9986708036       -5.1292205766       32.7801645192  TIP3      789             0.0000000000
     19717       925  TIP3      H2            -25.1171458127       -4.6851504640       33.6342459729  TIP3      789             0.0000000000
     19718       926  TIP3      OH2           -20.3909737112       -7.8384490733       38.2170848473  TIP3      790             0.0000000000
     19719       926  TIP3      H1            -20.4307446631       -8.6911663152       38.7073772995  TIP3      790             0.0000000000
     19720       926  TIP3      H2            -19.7192230941       -7.3976350978       38.7431608369  TIP3      790             0.0000000000
     19721       927  TIP3      OH2           -18.7210653836       -4.7418712773       37.3315165202  TIP3      791             0.0000000000
     19722       927  TIP3      H1            -18.9957472368       -4.2290611277       36.5499856178  TIP3      791             0.0000000000
     19723       927  TIP3      H2            -17.8893387753       -5.1380023787       37.0168585603  TIP3      791             0.0000000000
     19724       928  TIP3      OH2           -27.9107159025       -8.4412948727       37.7671097493  TIP3      792             0.0000000000
     19725       928  TIP3      H1            -28.7002138881       -9.0055091216       37.6354394385  TIP3      792             0.0000000000
     19726       928  TIP3      H2            -27.4159021805       -8.6034612370       36.9389679778  TIP3      792             0.0000000000
     19727       929  TIP3      OH2           -25.3828214905      -13.8289543369       33.8005477474  TIP3      793             0.0000000000
     19728       929  TIP3      H1            -25.5492417226      -12.8633353087       33.7558992054  TIP3      793             0.0000000000
     19729       929  TIP3      H2            -25.7750857320      -14.0912366360       32.9550696222  TIP3      793             0.0000000000
     19730       930  TIP3      OH2           -24.3051586960       -9.0156851824       37.2167916829  TIP3      794             0.0000000000
     19731       930  TIP3      H1            -24.8547436226       -8.7919014578       37.9880814043  TIP3      794             0.0000000000
     19732       930  TIP3      H2            -24.9784047430       -9.3569153426       36.5928281237  TIP3      794             0.0000000000
     19733       931  TIP3      OH2           -21.8712027300       -9.9666452398       36.4740775769  TIP3      795             0.0000000000
     19734       931  TIP3      H1            -22.8128615575       -9.8555636107       36.7337163764  TIP3      795             0.0000000000
     19735       931  TIP3      H2            -21.5669831340      -10.6453807323       37.1171508650  TIP3      795             0.0000000000
     19736       932  TIP3      OH2           -20.3928203059      -11.7662169405       38.0786112038  TIP3      796             0.0000000000
     19737       932  TIP3      H1            -20.2023093987      -12.6984838744       38.3057601026  TIP3      796             0.0000000000
     19738       932  TIP3      H2            -20.2035484049      -11.2675918147       38.9051147013  TIP3      796             0.0000000000
     19739       933  TIP3      OH2           -30.1435310489      -10.2823698267       37.7716186624  TIP3      797             0.0000000000
     19740       933  TIP3      H1            -30.1992813991      -11.1476797759       37.3235811740  TIP3      797             0.0000000000
     19741       933  TIP3      H2            -30.2419319868      -10.5690058153       38.7133079425  TIP3      797             0.0000000000
     19742       934  TIP3      OH2           -25.5228628879      -14.4579107109       37.1785519043  TIP3      798             0.0000000000
     19743       934  TIP3      H1            -24.9675404116      -15.2720237579       37.2371531377  TIP3      798             0.0000000000
     19744       934  TIP3      H2            -24.9028371741      -13.8972543929       36.6915352129  TIP3      798             0.0000000000
     19745       935  TIP3      OH2           -25.5920751111      -12.8948825952       39.5285655107  TIP3      799             0.0000000000
     19746       935  TIP3      H1            -25.4667259681      -13.3369727188       38.6696823206  TIP3      799             0.0000000000
     19747       935  TIP3      H2            -25.8804742204      -11.9929279543       39.2577989039  TIP3      799             0.0000000000
     19748       936  TIP3      OH2           -32.7506022918        4.5823771017       26.3079266217  TIP3      800             0.0000000000
     19749       936  TIP3      H1            -33.7117488812        4.6424481705       26.4974952449  TIP3      800             0.0000000000
     19750       936  TIP3      H2            -32.4703094977        3.9339495248       26.9864586552  TIP3      800             0.0000000000
     19751       937  TIP3      OH2           -31.7244256484        2.6476363137       28.0132487182  TIP3      801             0.0000000000
     19752       937  TIP3      H1            -32.1914378077        1.8794754102       28.3745414581  TIP3      801             0.0000000000
     19753       937  TIP3      H2            -31.1629785886        2.9245952026       28.7734810487  TIP3      801             0.0000000000
     19754       938  TIP3      OH2           -15.1318235518        3.1330442737       30.7083801049  TIP3      802             0.0000000000
     19755       938  TIP3      H1            -14.6706968370        3.2837939070       31.5468882221  TIP3      802             0.0000000000
     19756       938  TIP3      H2            -15.3628249479        4.0253087257       30.4144016739  TIP3      802             0.0000000000
     19757       939  TIP3      OH2           -15.4069798369        2.5853923217       33.7201186882  TIP3      803             0.0000000000
     19758       939  TIP3      H1            -15.6224842184        1.7388280412       33.2654090589  TIP3      803             0.0000000000
     19759       939  TIP3      H2            -15.0782449181        2.2360250981       34.5682679075  TIP3      803             0.0000000000
     19760       940  TIP3      OH2           -16.5597315554       -1.8071642856       38.6817431667  TIP3      804             0.0000000000
     19761       940  TIP3      H1            -17.3440948859       -1.6333380178       39.2531859865  TIP3      804             0.0000000000
     19762       940  TIP3      H2            -16.1446553787       -0.9116972525       38.6460021762  TIP3      804             0.0000000000
     19763       941  TIP3      OH2           -15.4003437716       -3.2256825258       24.0469013471  TIP3      805             0.0000000000
     19764       941  TIP3      H1            -14.5041276746       -2.8209682158       23.9909937634  TIP3      805             0.0000000000
     19765       941  TIP3      H2            -15.2415604770       -3.9959941452       24.6228134351  TIP3      805             0.0000000000
     19766       942  TIP3      OH2           -14.5813514367       -5.5283757492       25.9829984081  TIP3      806             0.0000000000
     19767       942  TIP3      H1            -15.4929006461       -5.7844225918       26.2556906513  TIP3      806             0.0000000000
     19768       942  TIP3      H2            -14.1672226936       -5.3273232931       26.8540889416  TIP3      806             0.0000000000
     19769       943  TIP3      OH2           -14.8924960794       -2.5880962672       30.7250854685  TIP3      807             0.0000000000
     19770       943  TIP3      H1            -14.3579134378       -3.3462777926       30.4229118123  TIP3      807             0.0000000000
     19771       943  TIP3      H2            -14.4854486116       -1.8355849714       30.2422584856  TIP3      807             0.0000000000
     19772       944  TIP3      OH2           -16.6937376798        0.2387471780       33.0432332120  TIP3      808             0.0000000000
     19773       944  TIP3      H1            -17.3411652273        0.6990177690       33.6103355243  TIP3      808             0.0000000000
     19774       944  TIP3      H2            -17.2732208071       -0.1073431044       32.3322538375  TIP3      808             0.0000000000
     19775       945  TIP3      OH2           -15.3209151219       -8.4206291206       21.0230033383  TIP3      809             0.0000000000
     19776       945  TIP3      H1            -15.6277532344       -7.6208647427       20.5670371114  TIP3      809             0.0000000000
     19777       945  TIP3      H2            -15.9007128989       -9.1371485212       20.6659198897  TIP3      809             0.0000000000
     19778       946  TIP3      OH2           -16.9048276777       -6.6810312680       26.5399157843  TIP3      810             0.0000000000
     19779       946  TIP3      H1            -17.0268624954       -7.6353334378       26.3639116942  TIP3      810             0.0000000000
     19780       946  TIP3      H2            -17.1851762336       -6.6114595829       27.4833467833  TIP3      810             0.0000000000
     19781       947  TIP3      OH2           -31.9973491381       -5.0867370141       30.7728266190  TIP3      811             0.0000000000
     19782       947  TIP3      H1            -31.9558458650       -4.8857773617       29.8164572038  TIP3      811             0.0000000000
     19783       947  TIP3      H2            -31.0423288257       -5.1925438475       31.0048279409  TIP3      811             0.0000000000
     19784       948  TIP3      OH2           -15.6788284188       -5.0649857176       36.4111140440  TIP3      812             0.0000000000
     19785       948  TIP3      H1            -15.1616927783       -5.8824766028       36.5935460410  TIP3      812             0.0000000000
     19786       948  TIP3      H2            -15.0129254972       -4.3990587001       36.1484690909  TIP3      812             0.0000000000
     19787       949  TIP3      OH2           -14.5602689894       -7.3658769637       37.4228934344  TIP3      813             0.0000000000
     19788       949  TIP3      H1            -15.3111294425       -7.8479690729       37.0015449826  TIP3      813             0.0000000000
     19789       949  TIP3      H2            -13.8226964117       -7.9356640007       37.1273653609  TIP3      813             0.0000000000
     19790       950  TIP3      OH2           -16.9364198085      -10.3295041472       19.9037688966  TIP3      814             0.0000000000
     19791       950  TIP3      H1            -16.4568160292      -11.1707988361       19.9680307744  TIP3      814             0.0000000000
     19792       950  TIP3      H2            -17.5613518954      -10.4390587495       19.1696011652  TIP3      814             0.0000000000
     19793       951  TIP3      OH2           -16.8997649818       -9.4609697942       25.6681034176  TIP3      815             0.0000000000
     19794       951  TIP3      H1            -16.9927790007      -10.4420962503       25.5815315551  TIP3      815             0.0000000000
     19795       951  TIP3      H2            -16.2820477089       -9.3149193562       24.9229119315  TIP3      815             0.0000000000
     19796       952  TIP3      OH2           -16.3155930890       -8.3792806109       30.0641538914  TIP3      816             0.0000000000
     19797       952  TIP3      H1            -15.3839706983       -8.2427260055       30.3562404053  TIP3      816             0.0000000000
     19798       952  TIP3      H2            -16.6866000125       -8.7369223770       30.8893369238  TIP3      816             0.0000000000
     19799       953  TIP3      OH2           -16.4040001355       -7.9795842544       32.8741265484  TIP3      817             0.0000000000
     19800       953  TIP3      H1            -17.1348864726       -7.7472708597       33.4593292537  TIP3      817             0.0000000000
     19801       953  TIP3      H2            -15.9139131549       -7.1194575451       32.8271258017  TIP3      817             0.0000000000
     19802       954  TIP3      OH2           -31.6004462937       -9.1199563408       35.9235384317  TIP3      818             0.0000000000
     19803       954  TIP3      H1            -31.1150716429       -9.3311939833       36.7503617002  TIP3      818             0.0000000000
     19804       954  TIP3      H2            -32.5171982134       -9.1465182667       36.2444344931  TIP3      818             0.0000000000
     19805       955  TIP3      OH2           -14.2676714311      -13.2542535922       38.3495374378  TIP3      819             0.0000000000
     19806       955  TIP3      H1            -13.9905991595      -14.0354662624       37.8267307411  TIP3      819             0.0000000000
     19807       955  TIP3      H2            -14.3928885762      -12.5737282362       37.6483472173  TIP3      819             0.0000000000
     19808       956  TIP3      OH2           -17.1574095674      -12.1383656806       25.4075416767  TIP3      820             0.0000000000
     19809       956  TIP3      H1            -16.4770001765      -12.3832778135       26.0744467787  TIP3      820             0.0000000000
     19810       956  TIP3      H2            -17.3771368623      -12.9981107754       25.0182583563  TIP3      820             0.0000000000
     19811       957  TIP3      OH2           -31.3111092243      -11.0242693303       30.2557030281  TIP3      821             0.0000000000
     19812       957  TIP3      H1            -30.9549881697      -11.9332071807       30.1691790186  TIP3      821             0.0000000000
     19813       957  TIP3      H2            -30.5087166233      -10.5079291298       30.4948035730  TIP3      821             0.0000000000
     19814       958  TIP3      OH2           -32.5059296371       -7.7894619612       31.4631295138  TIP3      822             0.0000000000
     19815       958  TIP3      H1            -31.6699133217       -8.2875147349       31.5599792823  TIP3      822             0.0000000000
     19816       958  TIP3      H2            -32.1889774214       -6.9313303504       31.1027193264  TIP3      822             0.0000000000
     19817       959  TIP3      OH2           -15.1394723504      -11.2411586250       36.7131595935  TIP3      823             0.0000000000
     19818       959  TIP3      H1            -15.6915770030      -10.7494183658       37.3593501660  TIP3      823             0.0000000000
     19819       959  TIP3      H2            -15.8198572126      -11.4448003082       36.0319775881  TIP3      823             0.0000000000
     19820       960  TIP3      OH2           -32.0434440038      -11.5745841500       24.3588036192  TIP3      824             0.0000000000
     19821       960  TIP3      H1            -31.8901605411      -10.9201874658       23.6431467422  TIP3      824             0.0000000000
     19822       960  TIP3      H2            -31.6336173871      -12.3381892199       23.8952268194  TIP3      824             0.0000000000
     19823       961  TIP3      OH2           -17.3511315981        2.8477010583       27.2783109967  TIP3      825             0.0000000000
     19824       961  TIP3      H1            -16.9235491989        2.9189177298       26.4034320502  TIP3      825             0.0000000000
     19825       961  TIP3      H2            -17.2579519342        3.7415338518       27.6625432626  TIP3      825             0.0000000000
     19826       962  TIP3      OH2           -32.7706320439      -13.3678661499       33.0325444960  TIP3      826             0.0000000000
     19827       962  TIP3      H1            -33.5472860764      -13.9113195645       33.2483112093  TIP3      826             0.0000000000
     19828       962  TIP3      H2            -33.1901233507      -12.6233974083       32.5623537080  TIP3      826             0.0000000000
     19829       963  TIP3      OH2           -30.1143049869        0.0949138804       37.1837106735  TIP3      827             0.0000000000
     19830       963  TIP3      H1            -30.8508118086        0.3612946008       36.6201931536  TIP3      827             0.0000000000
     19831       963  TIP3      H2            -30.2542153384        0.6228950217       37.9937883138  TIP3      827             0.0000000000
     19832       964  TIP3      OH2           -27.6376548232        1.5494413368       33.5163227356  TIP3      828             0.0000000000
     19833       964  TIP3      H1            -27.8526095772        2.4336964145       33.1468750845  TIP3      828             0.0000000000
     19834       964  TIP3      H2            -26.6604766375        1.5531959217       33.3868573457  TIP3      828             0.0000000000
     19835       965  TIP3      OH2           -23.6676956879        2.5080409515       36.1607140721  TIP3      829             0.0000000000
     19836       965  TIP3      H1            -23.4353214995        2.3689266790       37.1053850316  TIP3      829             0.0000000000
     19837       965  TIP3      H2            -22.8163764348        2.8946154178       35.8672034125  TIP3      829             0.0000000000
     19838       966  TIP3      OH2           -21.2917126947        4.0959329725       35.6802914401  TIP3      830             0.0000000000
     19839       966  TIP3      H1            -20.5666513804        3.4893656185       35.4738806883  TIP3      830             0.0000000000
     19840       966  TIP3      H2            -20.9639272253        4.5362973887       36.4915690909  TIP3      830             0.0000000000
     19841       967  TIP3      OH2           -15.7824089562      -14.1615189601       35.0780940556  TIP3      831             0.0000000000
     19842       967  TIP3      H1            -16.4215523840      -13.6891539337       34.5235455846  TIP3      831             0.0000000000
     19843       967  TIP3      H2            -15.6553323576      -15.0255946923       34.6281381117  TIP3      831             0.0000000000
     19844       968  TIP3      OH2           -30.2367900824        4.7888483357       33.4174419316  TIP3      832             0.0000000000
     19845       968  TIP3      H1            -31.0751918072        5.2248242871       33.1342015535  TIP3      832             0.0000000000
     19846       968  TIP3      H2            -30.1974395229        5.1070713468       34.3360066837  TIP3      832             0.0000000000
     19847       969  TIP3      OH2           -27.9207411308        3.9446670742       32.1724395774  TIP3      833             0.0000000000
     19848       969  TIP3      H1            -28.7511777323        4.2965248832       32.5737202219  TIP3      833             0.0000000000
     19849       969  TIP3      H2            -27.7373966658        4.6074848103       31.4682241695  TIP3      833             0.0000000000
     19850       970  TIP3      OH2           -23.1695249003        3.0237149646       31.6052152621  TIP3      834             0.0000000000
     19851       970  TIP3      H1            -23.2292963605        3.0649804472       30.6203812396  TIP3      834             0.0000000000
     19852       970  TIP3      H2            -23.1625773766        3.9708406460       31.8381703756  TIP3      834             0.0000000000
     19853       971  TIP3      OH2           -20.9022318997        2.2403407911       32.9595497882  TIP3      835             0.0000000000
     19854       971  TIP3      H1            -21.6913635500        2.5081664500       32.4387082638  TIP3      835             0.0000000000
     19855       971  TIP3      H2            -20.3106398129        2.9984834374       32.7657502675  TIP3      835             0.0000000000
     19856       972  TIP3      OH2           -19.0431877312        4.2459226914       32.4250982367  TIP3      836             0.0000000000
     19857       972  TIP3      H1            -18.6741196131        5.1278694554       32.2693748917  TIP3      836             0.0000000000
     19858       972  TIP3      H2            -18.6407093745        3.7406987430       31.6905345585  TIP3      836             0.0000000000
     19859       973  TIP3      OH2           -30.2162865624        3.1385711834       30.2147761615  TIP3      837             0.0000000000
     19860       973  TIP3      H1            -30.5396805333        2.6366472531       30.9816084792  TIP3      837             0.0000000000
     19861       973  TIP3      H2            -29.4813133317        2.5755379552       29.8818152019  TIP3      837             0.0000000000
     19862       974  TIP3      OH2           -28.3662750365        1.5097342429       29.0158414564  TIP3      838             0.0000000000
     19863       974  TIP3      H1            -28.0101234852        0.6389792012       28.7627720674  TIP3      838             0.0000000000
     19864       974  TIP3      H2            -27.6536733085        1.7621743001       29.6553628508  TIP3      838             0.0000000000
     19865       975  TIP3      OH2           -26.2000724397        2.0322166416       30.4789888732  TIP3      839             0.0000000000
     19866       975  TIP3      H1            -25.3532794025        2.0047766522       29.9983228872  TIP3      839             0.0000000000
     19867       975  TIP3      H2            -25.9388238603        2.3644320249       31.3517041207  TIP3      839             0.0000000000
     19868       976  TIP3      OH2           -22.7957996470      -12.2116311804       28.6342631588  TIP3      840             0.0000000000
     19869       976  TIP3      H1            -23.3336572101      -12.8265860465       29.1570865432  TIP3      840             0.0000000000
     19870       976  TIP3      H2            -21.9335074445      -12.6636451905       28.5895142447  TIP3      840             0.0000000000
     19871       977  TIP3      OH2           -17.1661618961      -14.1313995064       29.2964771681  TIP3      841             0.0000000000
     19872       977  TIP3      H1            -16.4750763459      -13.5785384031       28.8658979873  TIP3      841             0.0000000000
     19873       977  TIP3      H2            -17.9638566002      -13.8262988029       28.8301354728  TIP3      841             0.0000000000
     19874       978  TIP3      OH2           -15.5563949696      -12.9027509913       27.5100040784  TIP3      842             0.0000000000
     19875       978  TIP3      H1            -15.0550030230      -13.5728616087       26.9847206289  TIP3      842             0.0000000000
     19876       978  TIP3      H2            -14.8194454223      -12.3051469319       27.7808135910  TIP3      842             0.0000000000
     19877       979  TIP3      OH2           -29.6834073192      -13.8165740644       26.9102190132  TIP3      843             0.0000000000
     19878       979  TIP3      H1            -30.5150562413      -13.7092523282       26.4341171811  TIP3      843             0.0000000000
     19879       979  TIP3      H2            -29.4296320821      -14.7356974040       26.6471772223  TIP3      843             0.0000000000
     19880       980  TIP3      OH2           -31.1029730300      -13.5989599398       22.7718775367  TIP3      844             0.0000000000
     19881       980  TIP3      H1            -30.2110113312      -13.8757621039       22.4459822422  TIP3      844             0.0000000000
     19882       980  TIP3      H2            -31.5326797755      -13.5410622238       21.8999550531  TIP3      844             0.0000000000
     19883       981  TIP3      OH2           -25.4739770945      -14.5335300429       26.8852051696  TIP3      845             0.0000000000
     19884       981  TIP3      H1            -25.3297853558      -13.9134459778       26.1571123308  TIP3      845             0.0000000000
     19885       981  TIP3      H2            -24.8544176702      -14.1633832796       27.5396088411  TIP3      845             0.0000000000
     19886       982  TIP3      OH2           -20.2268160744      -13.7282208274       28.2485923148  TIP3      846             0.0000000000
     19887       982  TIP3      H1            -20.0918072480      -13.7796332095       27.2995594084  TIP3      846             0.0000000000
     19888       982  TIP3      H2            -20.6426592049      -14.6029552423       28.4301667832  TIP3      846             0.0000000000
     19889       983  TIP3      OH2           -19.4163164701      -13.2950388899       23.7993278522  TIP3      847             0.0000000000
     19890       983  TIP3      H1            -19.8243327757      -12.5633768233       24.3066636710  TIP3      847             0.0000000000
     19891       983  TIP3      H2            -19.6146744225      -14.0837620410       24.3558065037  TIP3      847             0.0000000000
     19892       984  TIP3      OH2           -31.8431441492        2.5384745527       24.7143929446  TIP3      848             0.0000000000
     19893       984  TIP3      H1            -32.3415940535        2.5110216002       23.8803379774  TIP3      848             0.0000000000
     19894       984  TIP3      H2            -32.2599837007        3.3182360975       25.1539534213  TIP3      848             0.0000000000
     19895       985  TIP3      OH2           -24.0652215758      -11.4872909421       23.6957513406  TIP3      849             0.0000000000
     19896       985  TIP3      H1            -23.9032973706      -11.8942317287       24.5696730571  TIP3      849             0.0000000000
     19897       985  TIP3      H2            -23.8844957886      -10.5575317234       23.9522029561  TIP3      849             0.0000000000
     19898       986  TIP3      OH2           -16.0826203603        2.9111653570       24.8006461022  TIP3      850             0.0000000000
     19899       986  TIP3      H1            -16.2460319903        2.0585018984       24.3203583955  TIP3      850             0.0000000000
     19900       986  TIP3      H2            -16.7366633312        3.5193354385       24.4139730754  TIP3      850             0.0000000000
     19901       987  TIP3      OH2           -30.6592272634      -13.2156028963       36.5417503899  TIP3      851             0.0000000000
     19902       987  TIP3      H1            -30.8654463234      -14.1619912970       36.6986151529  TIP3      851             0.0000000000
     19903       987  TIP3      H2            -29.9177660975      -13.0822678877       37.1596758782  TIP3      851             0.0000000000
     19904       988  TIP3      OH2           -28.2215307228      -13.5629580253       38.1664516836  TIP3      852             0.0000000000
     19905       988  TIP3      H1            -27.3132918983      -13.8014425410       37.9096264192  TIP3      852             0.0000000000
     19906       988  TIP3      H2            -28.5367314110      -14.4339799793       38.5083884960  TIP3      852             0.0000000000
     19907       989  TIP3      OH2           -19.9543578116      -14.4479792219       38.3022410885  TIP3      853             0.0000000000
     19908       989  TIP3      H1            -19.7126172156      -14.9883960512       39.0932310331  TIP3      853             0.0000000000
     19909       989  TIP3      H2            -19.0837857171      -14.4731202165       37.8462974326  TIP3      853             0.0000000000
     19910       990  TIP3      OH2           -16.6801247499        1.5752459148       36.5445974746  TIP3      854             0.0000000000
     19911       990  TIP3      H1            -17.5038587418        1.5622805152       36.0054732352  TIP3      854             0.0000000000
     19912       990  TIP3      H2            -16.7033413584        2.4793836080       36.8958551080  TIP3      854             0.0000000000
     19913       991  TIP3      OH2            -2.3554897201       -4.3144802881       26.3284850585  TIP3      855             0.0000000000
     19914       991  TIP3      H1             -2.4994387800       -3.3597793053       26.4936016225  TIP3      855             0.0000000000
     19915       991  TIP3      H2             -3.2436633398       -4.6250841315       26.1078058964  TIP3      855             0.0000000000
     19916       992  TIP3      OH2            -3.6422106141       -5.4524994183       30.5696608293  TIP3      856             0.0000000000
     19917       992  TIP3      H1             -3.4314163915       -6.1462681521       31.2237205382  TIP3      856             0.0000000000
     19918       992  TIP3      H2             -4.0087022914       -5.9587817124       29.8318714345  TIP3      856             0.0000000000
     19919       993  TIP3      OH2           -10.9266437402       -5.8325326390       31.6968935530  TIP3      857             0.0000000000
     19920       993  TIP3      H1            -11.0238811232       -6.7704708975       31.9474926026  TIP3      857             0.0000000000
     19921       993  TIP3      H2            -10.4084183447       -5.4986202361       32.4609764259  TIP3      857             0.0000000000
     19922       994  TIP3      OH2            -0.0310700583       -2.3748489125       29.0461089478  TIP3      858             0.0000000000
     19923       994  TIP3      H1             -0.1996645964       -3.1781952425       29.5676582773  TIP3      858             0.0000000000
     19924       994  TIP3      H2              0.4298138501       -1.8157436031       29.6915554065  TIP3      858             0.0000000000
     19925       995  TIP3      OH2           -10.2287438695       -0.6685714084       29.9391090465  TIP3      859             0.0000000000
     19926       995  TIP3      H1            -10.5795929552       -1.5760893550       29.8668028858  TIP3      859             0.0000000000
     19927       995  TIP3      H2             -9.3295495374       -0.9001142985       30.2252099372  TIP3      859             0.0000000000
     19928       996  TIP3      OH2           -13.2194837700       -7.7627599503       25.5023560185  TIP3      860             0.0000000000
     19929       996  TIP3      H1            -13.4661360029       -6.8145375136       25.5061990127  TIP3      860             0.0000000000
     19930       996  TIP3      H2            -13.9235477312       -8.0967999362       26.0845596668  TIP3      860             0.0000000000
     19931       997  TIP3      OH2           -13.1949022723       -5.6020182932       28.2482066868  TIP3      861             0.0000000000
     19932       997  TIP3      H1            -12.8218396275       -6.5085911387       28.3889180181  TIP3      861             0.0000000000
     19933       997  TIP3      H2            -12.4378781561       -5.1498617207       27.8358538000  TIP3      861             0.0000000000
     19934       998  TIP3      OH2            -2.3432679106        3.1324977165       28.9783546732  TIP3      862             0.0000000000
     19935       998  TIP3      H1             -1.9211071365        2.5775016455       28.2846469749  TIP3      862             0.0000000000
     19936       998  TIP3      H2             -2.5551271430        2.4723711601       29.6526917988  TIP3      862             0.0000000000
     19937       999  TIP3      OH2            -5.4559770359       -3.4836360697       30.9508283816  TIP3      863             0.0000000000
     19938       999  TIP3      H1             -4.9703004531       -4.2955322825       30.6761140263  TIP3      863             0.0000000000
     19939       999  TIP3      H2             -4.6618396006       -2.9720904552       31.2095818323  TIP3      863             0.0000000000
     19940      1000  TIP3      OH2             3.6490543541      -11.3412019338       31.0782999393  TIP3      864             0.0000000000
     19941      1000  TIP3      H1              3.7751654169      -10.7718171409       31.8718035156  TIP3      864             0.0000000000
     19942      1000  TIP3      H2              4.5650214261      -11.3697787339       30.7445793490  TIP3      864             0.0000000000
     19943      1001  TIP3      OH2            -1.3135881113       -8.1565886595       31.0282560014  TIP3      865             0.0000000000
     19944      1001  TIP3      H1             -1.2073706968       -9.1238494692       31.1341307518  TIP3      865             0.0000000000
     19945      1001  TIP3      H2             -1.9259074918       -8.1202847776       30.2658990811  TIP3      865             0.0000000000
     19946      1002  TIP3      OH2            -8.4777168246      -10.5200841541       27.9342827094  TIP3      866             0.0000000000
     19947      1002  TIP3      H1             -8.4009530386       -9.7383858476       27.3458486181  TIP3      866             0.0000000000
     19948      1002  TIP3      H2             -8.9555726458      -11.1154681680       27.3136777577  TIP3      866             0.0000000000
     19949      1003  TIP3      OH2            -1.2448977521       -9.9237581273       27.3245475651  TIP3      867             0.0000000000
     19950      1003  TIP3      H1             -0.5694968489      -10.4847380120       27.7786278950  TIP3      867             0.0000000000
     19951      1003  TIP3      H2             -0.7127986670       -9.3965786035       26.7149453075  TIP3      867             0.0000000000
     19952      1004  TIP3      OH2           -11.9914464726       -7.9645544130       28.7748893516  TIP3      868             0.0000000000
     19953      1004  TIP3      H1            -11.4393707645       -8.5237017867       29.3457965048  TIP3      868             0.0000000000
     19954      1004  TIP3      H2            -11.6718113175       -8.2978740358       27.9019435103  TIP3      868             0.0000000000
     19955      1005  TIP3      OH2            -7.6193945604       -6.5474234714       28.1466804582  TIP3      869             0.0000000000
     19956      1005  TIP3      H1             -6.7264999940       -6.9299091825       28.3046050856  TIP3      869             0.0000000000
     19957      1005  TIP3      H2             -7.9271127992       -7.1186168776       27.4040321661  TIP3      869             0.0000000000
     19958      1006  TIP3      OH2             3.8933689805       -9.9639019939       33.3984391640  TIP3      870             0.0000000000
     19959      1006  TIP3      H1              3.4362230665       -9.0922849087       33.2606378510  TIP3      870             0.0000000000
     19960      1006  TIP3      H2              4.5006538037       -9.7038686141       34.1045511879  TIP3      870             0.0000000000
     19961      1007  TIP3      OH2            -9.4970005186      -11.3187155307       32.1624529946  TIP3      871             0.0000000000
     19962      1007  TIP3      H1             -9.9774587617      -10.7809768926       31.5011377258  TIP3      871             0.0000000000
     19963      1007  TIP3      H2            -10.0470614901      -11.1399951811       32.9434736678  TIP3      871             0.0000000000
     19964      1008  TIP3      OH2            -3.3513416425       -1.7326103407       26.1492179234  TIP3      872             0.0000000000
     19965      1008  TIP3      H1             -3.5778969075       -2.0933097569       25.2713760939  TIP3      872             0.0000000000
     19966      1008  TIP3      H2             -3.1354794516       -0.8082349761       25.9214632310  TIP3      872             0.0000000000
     19967      1009  TIP3      OH2            -7.5624915109       -3.9463487630       32.7581195174  TIP3      873             0.0000000000
     19968      1009  TIP3      H1             -8.2758246479       -3.2774415046       32.7902967377  TIP3      873             0.0000000000
     19969      1009  TIP3      H2             -6.8827608260       -3.4265272719       32.2836775852  TIP3      873             0.0000000000
     19970      1010  TIP3      OH2             1.1630219979      -10.8558588205       28.3439978019  TIP3      874             0.0000000000
     19971      1010  TIP3      H1              1.2929957153      -11.2548710625       29.2184762114  TIP3      874             0.0000000000
     19972      1010  TIP3      H2              1.5989700161       -9.9973670737       28.4630410210  TIP3      874             0.0000000000
     19973      1011  TIP3      OH2            -9.9165686952       -9.4760731469       30.0274628650  TIP3      875             0.0000000000
     19974      1011  TIP3      H1             -9.3450931057       -8.8440874052       30.5167501430  TIP3      875             0.0000000000
     19975      1011  TIP3      H2             -9.3429882296       -9.7148308888       29.2599338565  TIP3      875             0.0000000000
     19976      1012  TIP3      OH2            -8.7818389636       -1.5216319848       33.2319862479  TIP3      876             0.0000000000
     19977      1012  TIP3      H1             -8.8404810267       -0.6043755048       32.9226833531  TIP3      876             0.0000000000
     19978      1012  TIP3      H2             -9.6441500235       -1.6191640979       33.6949509861  TIP3      876             0.0000000000
     19979      1013  TIP3      OH2           -12.9174503213       -2.0127017429       23.8136909902  TIP3      877             0.0000000000
     19980      1013  TIP3      H1            -12.9424895991       -1.5951352767       22.9356405853  TIP3      877             0.0000000000
     19981      1013  TIP3      H2            -12.7579725114       -1.2767819231       24.4469016545  TIP3      877             0.0000000000
     19982      1014  TIP3      OH2             0.8071939955       -0.4770424990       30.9815132575  TIP3      878             0.0000000000
     19983      1014  TIP3      H1             -0.1008128723       -0.2080442116       31.2490747863  TIP3      878             0.0000000000
     19984      1014  TIP3      H2              1.0538202694        0.3109651148       30.4565018610  TIP3      878             0.0000000000
     19985      1015  TIP3      OH2             0.6407620546      -12.0677898088       32.2937533501  TIP3      879             0.0000000000
     19986      1015  TIP3      H1             -0.0719076328      -11.6356500720       31.7747965870  TIP3      879             0.0000000000
     19987      1015  TIP3      H2              1.4311219997      -11.8178412462       31.7879234819  TIP3      879             0.0000000000
     19988      1016  TIP3      OH2            -6.2395116704      -14.0918232756       29.8150835859  TIP3      880             0.0000000000
     19989      1016  TIP3      H1             -6.5747827602      -14.9929763768       29.9468488082  TIP3      880             0.0000000000
     19990      1016  TIP3      H2             -7.0786676756      -13.5776406498       29.9715069438  TIP3      880             0.0000000000
     19991      1017  TIP3      OH2            -1.1855883473        1.7292747766       26.8762241762  TIP3      881             0.0000000000
     19992      1017  TIP3      H1             -0.9130899250        0.7922096673       26.7719955902  TIP3      881             0.0000000000
     19993      1017  TIP3      H2             -0.3108417815        2.1822013856       26.8200958367  TIP3      881             0.0000000000
     19994      1018  TIP3      OH2            -0.4733013468       -0.7953874915       25.9690028077  TIP3      882             0.0000000000
     19995      1018  TIP3      H1             -0.0830631786       -1.3424275855       25.2647644195  TIP3      882             0.0000000000
     19996      1018  TIP3      H2             -0.1180472238       -1.2047488195       26.7708845911  TIP3      882             0.0000000000
     19997      1019  TIP3      OH2             1.8114429844       -1.9954225410       34.8468921664  TIP3      883             0.0000000000
     19998      1019  TIP3      H1              2.0087038353       -2.6574187085       34.1447256375  TIP3      883             0.0000000000
     19999      1019  TIP3      H2              1.9390307867       -1.1804372976       34.3184528539  TIP3      883             0.0000000000
     20000      1020  TIP3      OH2             3.6866013565       -5.4606313829       32.6754588249  TIP3      884             0.0000000000
     20001      1020  TIP3      H1              2.9804974782       -4.7773602119       32.7235667048  TIP3      884             0.0000000000
     20002      1020  TIP3      H2              4.2098535860       -5.1189605057       31.9166668315  TIP3      884             0.0000000000
     20003      1021  TIP3      OH2            -0.0685445502       -5.5853397861       25.7521714113  TIP3      885             0.0000000000
     20004      1021  TIP3      H1             -0.9130963599       -5.1419723663       26.0163817027  TIP3      885             0.0000000000
     20005      1021  TIP3      H2              0.4158660315       -5.5603594552       26.5910981789  TIP3      885             0.0000000000
     20006      1022  TIP3      OH2             0.1067892089       -6.8473531827       34.7664282516  TIP3      886             0.0000000000
     20007      1022  TIP3      H1             -0.0650348603       -5.9290967817       35.0368170372  TIP3      886             0.0000000000
     20008      1022  TIP3      H2             -0.4864721651       -6.9129821753       33.9913433309  TIP3      886             0.0000000000
     20009      1023  TIP3      OH2            -8.6315881505       -4.2608169022       27.3540003393  TIP3      887             0.0000000000
     20010      1023  TIP3      H1             -9.2644906934       -4.3944167079       26.6279932979  TIP3      887             0.0000000000
     20011      1023  TIP3      H2             -8.2549823832       -5.1688169642       27.4315826776  TIP3      887             0.0000000000
     20012      1024  TIP3      OH2            -7.2747427774       -1.3482496396       30.0961095255  TIP3      888             0.0000000000
     20013      1024  TIP3      H1             -7.2869910221       -1.7207346708       29.1868613055  TIP3      888             0.0000000000
     20014      1024  TIP3      H2             -6.8181736038       -2.0760207702       30.5643828024  TIP3      888             0.0000000000
     20015      1025  TIP3      OH2            -8.1706816053       -5.9773411493       30.7925193972  TIP3      889             0.0000000000
     20016      1025  TIP3      H1             -8.0053138782       -5.9046423841       29.8253715376  TIP3      889             0.0000000000
     20017      1025  TIP3      H2             -7.6014362094       -5.2803008078       31.1566881948  TIP3      889             0.0000000000
     20018      1026  TIP3      OH2            -1.7064807491        0.0985746648       31.7716360403  TIP3      890             0.0000000000
     20019      1026  TIP3      H1             -1.6869088609        0.2249423273       32.7374168359  TIP3      890             0.0000000000
     20020      1026  TIP3      H2             -1.8977423302       -0.8576598840       31.7268668924  TIP3      890             0.0000000000
     20021      1027  TIP3      OH2            -7.2477478076       -1.0512592188       35.5079903955  TIP3      891             0.0000000000
     20022      1027  TIP3      H1             -7.8679019855       -0.4830991740       36.0296255661  TIP3      891             0.0000000000
     20023      1027  TIP3      H2             -7.7601672607       -1.1655848726       34.6843942671  TIP3      891             0.0000000000
     20024      1028  TIP3      OH2            -1.1547787718       -6.0179438934       23.0907616844  TIP3      892             0.0000000000
     20025      1028  TIP3      H1             -0.8505697618       -5.5879186634       23.9141641538  TIP3      892             0.0000000000
     20026      1028  TIP3      H2             -1.4749379459       -5.2662928932       22.5592414409  TIP3      892             0.0000000000
     20027      1029  TIP3      OH2           -10.0305784502       -5.0760054496       34.2228818952  TIP3      893             0.0000000000
     20028      1029  TIP3      H1             -9.5231832866       -4.4810247770       34.7936716545  TIP3      893             0.0000000000
     20029      1029  TIP3      H2            -10.8386044583       -5.1803366185       34.7581859792  TIP3      893             0.0000000000
     20030      1030  TIP3      OH2            -3.9392120481        1.1548557561       26.1706562669  TIP3      894             0.0000000000
     20031      1030  TIP3      H1             -3.1212566209        1.6261595494       26.4039574407  TIP3      894             0.0000000000
     20032      1030  TIP3      H2             -3.9017907199        1.1506476494       25.1787920521  TIP3      894             0.0000000000
     20033      1031  TIP3      OH2            -9.0726366988        0.5726354135       36.5933471691  TIP3      895             0.0000000000
     20034      1031  TIP3      H1             -9.1549917169        1.1678331069       35.8323511771  TIP3      895             0.0000000000
     20035      1031  TIP3      H2            -10.0223661603        0.3907624878       36.7894229273  TIP3      895             0.0000000000
     20036      1032  TIP3      OH2           -10.4190766416       -5.4685430554       25.2541391764  TIP3      896             0.0000000000
     20037      1032  TIP3      H1            -10.2067880650       -4.6535012365       24.7438658683  TIP3      896             0.0000000000
     20038      1032  TIP3      H2            -11.0209931397       -5.9035601297       24.6426066715  TIP3      896             0.0000000000
     20039      1033  TIP3      OH2           -13.4055073865       -2.8430153009       33.5721069077  TIP3      897             0.0000000000
     20040      1033  TIP3      H1            -13.9322936510       -2.7421436869       32.7602495735  TIP3      897             0.0000000000
     20041      1033  TIP3      H2            -12.9301483237       -3.6778562981       33.4012408309  TIP3      897             0.0000000000
     20042      1034  TIP3      OH2           -13.2152703421       -0.5165373184       30.2099782871  TIP3      898             0.0000000000
     20043      1034  TIP3      H1            -12.2407176266       -0.5600720850       30.1654468721  TIP3      898             0.0000000000
     20044      1034  TIP3      H2            -13.3503273521        0.2816647278       30.7365113387  TIP3      898             0.0000000000
     20045      1035  TIP3      OH2             4.1958870542        0.5803579114       36.3327851623  TIP3      899             0.0000000000
     20046      1035  TIP3      H1              4.3218212291       -0.3069866197       36.7181118333  TIP3      899             0.0000000000
     20047      1035  TIP3      H2              3.2289569226        0.6678589970       36.5362351647  TIP3      899             0.0000000000
     20048      1036  TIP3      OH2            -4.1054029769       -0.1829682313       35.1006327749  TIP3      900             0.0000000000
     20049      1036  TIP3      H1             -3.9556313276        0.4387568823       35.8343518019  TIP3      900             0.0000000000
     20050      1036  TIP3      H2             -5.0190527538       -0.4606070226       35.2809069075  TIP3      900             0.0000000000
     20051      1037  TIP3      OH2            -3.6986994262        4.0551481322       24.5613873125  TIP3      901             0.0000000000
     20052      1037  TIP3      H1             -4.3642921806        4.2042370753       23.8693000582  TIP3      901             0.0000000000
     20053      1037  TIP3      H2             -3.8080398440        4.8405369879       25.1303582892  TIP3      901             0.0000000000
     20054      1038  TIP3      OH2           -10.4947212559        2.5185019185       26.9498835259  TIP3      902             0.0000000000
     20055      1038  TIP3      H1            -10.1469243483        2.3097580089       27.8505029589  TIP3      902             0.0000000000
     20056      1038  TIP3      H2            -11.4373003180        2.2940788977       27.0419160160  TIP3      902             0.0000000000
     20057      1039  TIP3      OH2            -1.2956525192        3.4192618281       21.2833313219  TIP3      903             0.0000000000
     20058      1039  TIP3      H1             -0.6509157988        2.9033925963       20.7836584410  TIP3      903             0.0000000000
     20059      1039  TIP3      H2             -1.0329933623        3.2238434957       22.2006310425  TIP3      903             0.0000000000
     20060      1040  TIP3      OH2            -1.1459565668        3.0820976034       24.0896898047  TIP3      904             0.0000000000
     20061      1040  TIP3      H1             -2.1210055045        3.2413615057       24.1028021359  TIP3      904             0.0000000000
     20062      1040  TIP3      H2             -1.0427235396        2.3966291004       24.7680674187  TIP3      904             0.0000000000
     20063      1041  TIP3      OH2             1.7726658492       -8.0886801564       36.6292650254  TIP3      905             0.0000000000
     20064      1041  TIP3      H1              1.0698622689       -7.6585136607       36.0979084530  TIP3      905             0.0000000000
     20065      1041  TIP3      H2              1.6637781601       -9.0320423374       36.4085573926  TIP3      905             0.0000000000
     20066      1042  TIP3      OH2           -11.1441882863       -1.4989309064       34.4876066436  TIP3      906             0.0000000000
     20067      1042  TIP3      H1            -10.9587537026       -1.8673623080       35.3834654925  TIP3      906             0.0000000000
     20068      1042  TIP3      H2            -11.9896242730       -1.9287323089       34.2440769718  TIP3      906             0.0000000000
     20069      1043  TIP3      OH2            -8.4526844760      -12.8730494813       30.3466290219  TIP3      907             0.0000000000
     20070      1043  TIP3      H1             -9.3691459661      -12.9702881900       30.0252135923  TIP3      907             0.0000000000
     20071      1043  TIP3      H2             -8.6108183179      -12.3207815442       31.1438808401  TIP3      907             0.0000000000
     20072      1044  TIP3      OH2            -3.5593375940      -13.2462334893       33.7163265596  TIP3      908             0.0000000000
     20073      1044  TIP3      H1             -3.2526794340      -13.5611134304       34.6013147985  TIP3      908             0.0000000000
     20074      1044  TIP3      H2             -4.5293808913      -13.3391361797       33.8046914127  TIP3      908             0.0000000000
     20075      1045  TIP3      OH2            -1.0330154708       -9.4262825407       35.1283399077  TIP3      909             0.0000000000
     20076      1045  TIP3      H1             -1.7847358293       -9.7088541150       35.7105628117  TIP3      909             0.0000000000
     20077      1045  TIP3      H2             -0.7692126993       -8.5780412367       35.5146293113  TIP3      909             0.0000000000
     20078      1046  TIP3      OH2            -8.2363517551       -8.4159670650       31.8808904583  TIP3      910             0.0000000000
     20079      1046  TIP3      H1             -9.0283272187       -8.3344778285       32.4526650458  TIP3      910             0.0000000000
     20080      1046  TIP3      H2             -8.1963217501       -7.5208099413       31.4613333638  TIP3      910             0.0000000000
     20081      1047  TIP3      OH2            -8.3966397931       -8.3457240968       26.3226705097  TIP3      911             0.0000000000
     20082      1047  TIP3      H1             -9.3524912758       -8.3285237786       26.1263203065  TIP3      911             0.0000000000
     20083      1047  TIP3      H2             -7.9962816818       -8.6432621910       25.4701680647  TIP3      911             0.0000000000
     20084      1048  TIP3      OH2            -2.5565956220       -7.5807457174       25.1507746464  TIP3      912             0.0000000000
     20085      1048  TIP3      H1             -2.5835346659       -6.7209988919       24.7034637583  TIP3      912             0.0000000000
     20086      1048  TIP3      H2             -1.8715131177       -8.0188136969       24.6174101354  TIP3      912             0.0000000000
     20087      1049  TIP3      OH2            -4.2563690049       -7.0100142131       36.7230608489  TIP3      913             0.0000000000
     20088      1049  TIP3      H1             -4.4917847074       -7.9211980778       36.9812272493  TIP3      913             0.0000000000
     20089      1049  TIP3      H2             -3.3925018457       -6.8974952105       37.1583950545  TIP3      913             0.0000000000
     20090      1050  TIP3      OH2            -2.5588066317       -7.8011097560       28.6450568840  TIP3      914             0.0000000000
     20091      1050  TIP3      H1             -2.1989206421       -7.0931030337       28.0873220067  TIP3      914             0.0000000000
     20092      1050  TIP3      H2             -2.2628901347       -8.5959858223       28.1465290308  TIP3      914             0.0000000000
     20093      1051  TIP3      OH2           -10.7770402173       -8.2025660503       32.9728865552  TIP3      915             0.0000000000
     20094      1051  TIP3      H1            -10.5734465171       -7.6246009965       33.7301378787  TIP3      915             0.0000000000
     20095      1051  TIP3      H2            -11.1204186624       -9.0163725082       33.4121702388  TIP3      915             0.0000000000
     20096      1052  TIP3      OH2           -13.5178615434      -11.2141222040       27.5773662278  TIP3      916             0.0000000000
     20097      1052  TIP3      H1            -12.6616943229      -11.1154848551       28.0077022741  TIP3      916             0.0000000000
     20098      1052  TIP3      H2            -13.3111254622      -11.2153685393       26.6162286000  TIP3      916             0.0000000000
     20099      1053  TIP3      OH2           -11.8817509022      -10.5409399724       23.0374361620  TIP3      917             0.0000000000
     20100      1053  TIP3      H1            -12.3141254105      -11.2269090986       22.4643176222  TIP3      917             0.0000000000
     20101      1053  TIP3      H2            -12.5379468637       -9.8406728918       22.9806152250  TIP3      917             0.0000000000
     20102      1054  TIP3      OH2            -2.5402013790       -6.5507302800       32.7561542112  TIP3      918             0.0000000000
     20103      1054  TIP3      H1             -2.0544352470       -7.2644066099       32.2958596095  TIP3      918             0.0000000000
     20104      1054  TIP3      H2             -3.2265255875       -7.0515938276       33.2604148158  TIP3      918             0.0000000000
     20105      1055  TIP3      OH2            -5.7807785239      -10.1982786168       27.5870556697  TIP3      919             0.0000000000
     20106      1055  TIP3      H1             -6.6981073908      -10.4277379834       27.8461338144  TIP3      919             0.0000000000
     20107      1055  TIP3      H2             -5.2665434023      -10.8954173907       28.0489863008  TIP3      919             0.0000000000
     20108      1056  TIP3      OH2           -11.0703123261       -9.0371993472       26.5477681577  TIP3      920             0.0000000000
     20109      1056  TIP3      H1            -11.7553286766       -8.6929120380       25.9297055889  TIP3      920             0.0000000000
     20110      1056  TIP3      H2            -10.8670839275       -9.9140417987       26.1526091959  TIP3      920             0.0000000000
     20111      1057  TIP3      OH2            -7.5909948416       -9.0101183833       23.8391886367  TIP3      921             0.0000000000
     20112      1057  TIP3      H1             -7.2096832469       -9.5415077973       23.1271340692  TIP3      921             0.0000000000
     20113      1057  TIP3      H2             -7.9062920801       -8.2069546561       23.3790957010  TIP3      921             0.0000000000
     20114      1058  TIP3      OH2            -1.2364778472      -10.9489799212       30.6773125276  TIP3      922             0.0000000000
     20115      1058  TIP3      H1             -1.8946091412      -11.0556809825       31.4081864177  TIP3      922             0.0000000000
     20116      1058  TIP3      H2             -1.4656251989      -11.6632961517       30.0613859910  TIP3      922             0.0000000000
     20117      1059  TIP3      OH2            -8.8470273200       -7.0398991352       21.9451502876  TIP3      923             0.0000000000
     20118      1059  TIP3      H1             -9.6512386757       -7.5032431570       21.6687837576  TIP3      923             0.0000000000
     20119      1059  TIP3      H2             -8.3709050206       -6.9169360263       21.1086968275  TIP3      923             0.0000000000
     20120      1060  TIP3      OH2             1.5741421038        3.9016332229       36.4764298153  TIP3      924             0.0000000000
     20121      1060  TIP3      H1              2.1285775125        4.4283449619       35.8759081451  TIP3      924             0.0000000000
     20122      1060  TIP3      H2              1.8011799140        4.3993866922       37.2926098655  TIP3      924             0.0000000000
     20123      1061  TIP3      OH2           -10.9148579115       -2.7961680930       36.9136784052  TIP3      925             0.0000000000
     20124      1061  TIP3      H1            -10.1409295923       -2.6093979699       37.4824134651  TIP3      925             0.0000000000
     20125      1061  TIP3      H2            -11.5904376317       -3.0464813255       37.5841519558  TIP3      925             0.0000000000
     20126      1062  TIP3      OH2            -5.2837686772       -7.8182638338       28.7801226902  TIP3      926             0.0000000000
     20127      1062  TIP3      H1             -4.3215416995       -7.9892362805       28.8030274610  TIP3      926             0.0000000000
     20128      1062  TIP3      H2             -5.5767078515       -8.6488983812       28.3357007711  TIP3      926             0.0000000000
     20129      1063  TIP3      OH2            -9.9416576556      -11.5223548879       25.9378101753  TIP3      927             0.0000000000
     20130      1063  TIP3      H1            -10.4376490515      -12.3400435091       26.1895474310  TIP3      927             0.0000000000
     20131      1063  TIP3      H2             -9.6482424866      -11.7307785148       25.0403233530  TIP3      927             0.0000000000
     20132      1064  TIP3      OH2            -5.9034388976       -9.6530984611       31.6209051998  TIP3      928             0.0000000000
     20133      1064  TIP3      H1             -6.7430858956       -9.1823055516       31.4463533255  TIP3      928             0.0000000000
     20134      1064  TIP3      H2             -5.3801391679       -8.9238314587       31.9572178002  TIP3      928             0.0000000000
     20135      1065  TIP3      OH2             2.0830217634       -3.3566288639       32.6736355777  TIP3      929             0.0000000000
     20136      1065  TIP3      H1              2.4431228751       -2.9322019570       31.8531052877  TIP3      929             0.0000000000
     20137      1065  TIP3      H2              1.1866898323       -3.5936182200       32.3883673231  TIP3      929             0.0000000000
     20138      1066  TIP3      OH2            -2.0633808561       -9.6645784135       21.5588447143  TIP3      930             0.0000000000
     20139      1066  TIP3      H1             -2.5697020755      -10.3664437470       21.9994747888  TIP3      930             0.0000000000
     20140      1066  TIP3      H2             -1.5630333429       -9.2227827570       22.2681819098  TIP3      930             0.0000000000
     20141      1067  TIP3      OH2            -4.1205729361       -2.8505272160       34.5549930226  TIP3      931             0.0000000000
     20142      1067  TIP3      H1             -4.0834008471       -3.3183062616       35.3964137545  TIP3      931             0.0000000000
     20143      1067  TIP3      H2             -3.9907789033       -1.9244777984       34.8469577599  TIP3      931             0.0000000000
     20144      1068  TIP3      OH2            -0.3351467410       -8.5510666987       23.6657030582  TIP3      932             0.0000000000
     20145      1068  TIP3      H1              0.5098536761       -8.5105780652       24.1586357258  TIP3      932             0.0000000000
     20146      1068  TIP3      H2             -0.4078210141       -7.6224872159       23.3434555269  TIP3      932             0.0000000000
     20147      1069  TIP3      OH2           -10.1519633554       -3.8972416504       29.6875703484  TIP3      933             0.0000000000
     20148      1069  TIP3      H1             -9.6662154967       -4.0962410815       28.8634812855  TIP3      933             0.0000000000
     20149      1069  TIP3      H2            -10.0786874970       -4.7324936379       30.1965572661  TIP3      933             0.0000000000
     20150      1070  TIP3      OH2           -12.9906868396       -5.5275906902       34.7642827888  TIP3      934             0.0000000000
     20151      1070  TIP3      H1            -12.9952606011       -6.1752838293       35.4869447681  TIP3      934             0.0000000000
     20152      1070  TIP3      H2            -13.7237886160       -5.8444427681       34.2008841990  TIP3      934             0.0000000000
     20153      1071  TIP3      OH2            -6.6103089193       -5.5700693770       36.3939669533  TIP3      935             0.0000000000
     20154      1071  TIP3      H1             -6.9986949716       -6.1642512360       35.7210881132  TIP3      935             0.0000000000
     20155      1071  TIP3      H2             -5.7667249993       -6.0528202986       36.5628150751  TIP3      935             0.0000000000
     20156      1072  TIP3      OH2            -1.4705376884       -0.9620963377       34.6607641931  TIP3      936             0.0000000000
     20157      1072  TIP3      H1             -2.3682091618       -0.6097812702       34.8341428644  TIP3      936             0.0000000000
     20158      1072  TIP3      H2             -0.9719226874       -0.5222151680       35.3701970272  TIP3      936             0.0000000000
     20159      1073  TIP3      OH2             4.2542128405       -2.2431316952       35.9412297619  TIP3      937             0.0000000000
     20160      1073  TIP3      H1              3.3327075699       -2.0720087965       35.6454988962  TIP3      937             0.0000000000
     20161      1073  TIP3      H2              4.7055748209       -2.3449187567       35.0754223327  TIP3      937             0.0000000000
     20162      1074  TIP3      OH2             2.4493468143        0.5824575169       23.3032435484  TIP3      938             0.0000000000
     20163      1074  TIP3      H1              2.4957246811       -0.3692729714       23.1845543200  TIP3      938             0.0000000000
     20164      1074  TIP3      H2              1.8959855801        0.8600678237       22.5373032276  TIP3      938             0.0000000000
     20165      1075  TIP3      OH2            -0.2733570565       -4.9247865848       30.3174184304  TIP3      939             0.0000000000
     20166      1075  TIP3      H1             -1.1935863377       -5.1685317653       30.4978324716  TIP3      939             0.0000000000
     20167      1075  TIP3      H2              0.0811049280       -5.6906830112       29.8148381182  TIP3      939             0.0000000000
     20168      1076  TIP3      OH2            -8.0463473427       -0.0081840192       26.5434025751  TIP3      940             0.0000000000
     20169      1076  TIP3      H1             -7.9164253284        0.9261630847       26.2628150570  TIP3      940             0.0000000000
     20170      1076  TIP3      H2             -9.0106374635       -0.0330006457       26.5822683072  TIP3      940             0.0000000000
     20171      1077  TIP3      OH2            -6.8392805746       -2.1701382188       27.4876745063  TIP3      941             0.0000000000
     20172      1077  TIP3      H1             -7.3487293082       -1.6317774708       26.8381530835  TIP3      941             0.0000000000
     20173      1077  TIP3      H2             -7.3341079917       -3.0148181449       27.4403660128  TIP3      941             0.0000000000
     20174      1078  TIP3      OH2            -5.8378905938        1.4832354413       33.2718579677  TIP3      942             0.0000000000
     20175      1078  TIP3      H1             -5.3185953976        2.3012828336       33.1767207078  TIP3      942             0.0000000000
     20176      1078  TIP3      H2             -5.2432116111        0.9842365458       33.8583565506  TIP3      942             0.0000000000
     20177      1079  TIP3      OH2            -7.8819283696        2.6202160624       25.9612242571  TIP3      943             0.0000000000
     20178      1079  TIP3      H1             -8.7960381261        2.8499001248       26.2295763336  TIP3      943             0.0000000000
     20179      1079  TIP3      H2             -7.3787967256        3.4265680182       26.2294667421  TIP3      943             0.0000000000
     20180      1080  TIP3      OH2            -3.0318454399       -2.8623293079       32.0731562555  TIP3      944             0.0000000000
     20181      1080  TIP3      H1             -3.2681565465       -2.9376200976       33.0311996121  TIP3      944             0.0000000000
     20182      1080  TIP3      H2             -2.8653039320       -3.7917649082       31.8314394532  TIP3      944             0.0000000000
     20183      1081  TIP3      OH2            -0.1071332900       -1.3313146072       21.6333111907  TIP3      945             0.0000000000
     20184      1081  TIP3      H1              0.0501525294       -1.6665688902       22.5376773534  TIP3      945             0.0000000000
     20185      1081  TIP3      H2             -0.9989004003       -1.6834071704       21.4549837126  TIP3      945             0.0000000000
     20186      1082  TIP3      OH2             0.1626135566        1.5274443475       34.4920467635  TIP3      946             0.0000000000
     20187      1082  TIP3      H1             -0.7841376616        1.7365552634       34.3201477712  TIP3      946             0.0000000000
     20188      1082  TIP3      H2              0.5665587300        2.4031672225       34.3413409259  TIP3      946             0.0000000000
     20189      1083  TIP3      OH2             4.6494224075        3.8281375938       21.9831638208  TIP3      947             0.0000000000
     20190      1083  TIP3      H1              4.9361257382        4.0990644316       21.0800629081  TIP3      947             0.0000000000
     20191      1083  TIP3      H2              3.7665459048        4.2451396938       22.0271914258  TIP3      947             0.0000000000
     20192      1084  TIP3      OH2           -11.1762345135      -10.5297227636       34.3471077727  TIP3      948             0.0000000000
     20193      1084  TIP3      H1            -11.7947205351      -10.1473955349       35.0050751396  TIP3      948             0.0000000000
     20194      1084  TIP3      H2            -11.0460492577      -11.4011145080       34.7596172401  TIP3      948             0.0000000000
     20195      1085  TIP3      OH2             0.6476881993       -2.6424745715       23.9883889771  TIP3      949             0.0000000000
     20196      1085  TIP3      H1              0.3505140514       -3.5315904667       24.2283860487  TIP3      949             0.0000000000
     20197      1085  TIP3      H2              1.6130302521       -2.7973283657       23.9009626015  TIP3      949             0.0000000000
     20198      1086  TIP3      OH2           -12.2054797133        1.0680404871       32.5148962310  TIP3      950             0.0000000000
     20199      1086  TIP3      H1            -11.4364040306        0.5192498165       32.7480040323  TIP3      950             0.0000000000
     20200      1086  TIP3      H2            -12.4006418368        1.4996107380       33.3553603989  TIP3      950             0.0000000000
     20201      1087  TIP3      OH2           -10.0902287840       -3.1567634098       23.7333402411  TIP3      951             0.0000000000
     20202      1087  TIP3      H1            -11.0269282827       -2.9247246933       23.8780313007  TIP3      951             0.0000000000
     20203      1087  TIP3      H2             -9.8370712576       -2.4387933496       23.1244389795  TIP3      951             0.0000000000
     20204      1088  TIP3      OH2            -2.4530958856      -10.8280568998       33.1326937761  TIP3      952             0.0000000000
     20205      1088  TIP3      H1             -1.8783989399      -10.5326138378       33.8670611302  TIP3      952             0.0000000000
     20206      1088  TIP3      H2             -2.8907603852      -11.6256927843       33.5099216916  TIP3      952             0.0000000000
     20207      1089  TIP3      OH2            -1.9700377173      -11.2257372973       25.0149780241  TIP3      953             0.0000000000
     20208      1089  TIP3      H1             -2.7145035862      -10.6446308806       24.7318189702  TIP3      953             0.0000000000
     20209      1089  TIP3      H2             -1.7180573690      -10.8196456361       25.8640121766  TIP3      953             0.0000000000
     20210      1090  TIP3      OH2            -4.2193106854        0.9870038608       23.5473769947  TIP3      954             0.0000000000
     20211      1090  TIP3      H1             -5.1676149531        0.8664588465       23.3858703523  TIP3      954             0.0000000000
     20212      1090  TIP3      H2             -4.0767873512        1.8117901526       23.0364301433  TIP3      954             0.0000000000
     20213      1091  TIP3      OH2            -4.2414330476       -9.7568438208       24.6502481718  TIP3      955             0.0000000000
     20214      1091  TIP3      H1             -4.0136104590       -8.8220047660       24.7831459627  TIP3      955             0.0000000000
     20215      1091  TIP3      H2             -5.1897501408       -9.7432860459       24.8664468773  TIP3      955             0.0000000000
     20216      1092  TIP3      OH2            -3.8326761962       -8.4431243349       34.1251008321  TIP3      956             0.0000000000
     20217      1092  TIP3      H1             -3.6950503790       -8.2975771314       35.0705383713  TIP3      956             0.0000000000
     20218      1092  TIP3      H2             -3.5905719431       -9.3720398374       33.9794073888  TIP3      956             0.0000000000
     20219      1093  TIP3      OH2            -4.2374115518      -12.7378531720       25.9059081026  TIP3      957             0.0000000000
     20220      1093  TIP3      H1             -4.5511539315      -12.2864978208       26.7254115592  TIP3      957             0.0000000000
     20221      1093  TIP3      H2             -3.5165747735      -12.1401472574       25.6260871598  TIP3      957             0.0000000000
     20222      1094  TIP3      OH2            -7.0290571291        2.1035880228       23.4224355160  TIP3      958             0.0000000000
     20223      1094  TIP3      H1             -6.8520881348        2.9616417401       23.0208108594  TIP3      958             0.0000000000
     20224      1094  TIP3      H2             -7.4955495718        2.3364928737       24.2497884282  TIP3      958             0.0000000000
     20225      1095  TIP3      OH2             1.6116578588      -10.6597881336       35.3218798204  TIP3      959             0.0000000000
     20226      1095  TIP3      H1              0.6561977514      -10.5108057550       35.1839087072  TIP3      959             0.0000000000
     20227      1095  TIP3      H2              1.9585991233      -10.5057918703       34.4305764578  TIP3      959             0.0000000000
     20228      1096  TIP3      OH2             0.5094937453       -7.2456095299       28.8533426649  TIP3      960             0.0000000000
     20229      1096  TIP3      H1             -0.1447023676       -7.7782908109       29.3345539714  TIP3      960             0.0000000000
     20230      1096  TIP3      H2              1.2602394148       -7.3262985130       29.4969283691  TIP3      960             0.0000000000
     20231      1097  TIP3      OH2           -10.3120260379       -0.7934717656       21.8515954879  TIP3      961             0.0000000000
     20232      1097  TIP3      H1             -9.9019086668       -0.0539600387       21.3414156596  TIP3      961             0.0000000000
     20233      1097  TIP3      H2            -10.1073285927       -1.5233478176       21.2352427818  TIP3      961             0.0000000000
     20234      1098  TIP3      OH2             1.4109572318        2.2716253803       30.7036178019  TIP3      962             0.0000000000
     20235      1098  TIP3      H1              1.6023684228        2.9564883521       30.0299941122  TIP3      962             0.0000000000
     20236      1098  TIP3      H2              2.2897315120        2.1636979753       31.1103284378  TIP3      962             0.0000000000
     20237      1099  TIP3      OH2           -11.0130249961      -13.5891960655       29.7319559421  TIP3      963             0.0000000000
     20238      1099  TIP3      H1            -11.1371296361      -13.6418977671       28.7553138559  TIP3      963             0.0000000000
     20239      1099  TIP3      H2            -11.3720565732      -14.4582437172       30.0141707545  TIP3      963             0.0000000000
     20240      1100  TIP3      OH2           -12.3489912555       -0.0309527504       25.6425150756  TIP3      964             0.0000000000
     20241      1100  TIP3      H1            -12.8873330694        0.4871631213       26.2545293500  TIP3      964             0.0000000000
     20242      1100  TIP3      H2            -11.9479605580        0.6770729564       25.1137158446  TIP3      964             0.0000000000
     20243      1101  TIP3      OH2           -13.1498557005        3.3043230700       36.7903638845  TIP3      965             0.0000000000
     20244      1101  TIP3      H1            -12.4621195666        3.1070509089       37.4694470116  TIP3      965             0.0000000000
     20245      1101  TIP3      H2            -13.5148685364        2.4022453209       36.7144047057  TIP3      965             0.0000000000
     20246      1102  TIP3      OH2            -7.9818865410        2.2268364955       38.3867375772  TIP3      966             0.0000000000
     20247      1102  TIP3      H1             -7.1804553021        1.7297137183       38.6461940379  TIP3      966             0.0000000000
     20248      1102  TIP3      H2             -8.2939189990        1.6235364940       37.6854799643  TIP3      966             0.0000000000
     20249      1103  TIP3      OH2            -4.4043099690        0.6078745637       19.7009814453  TIP3      967             0.0000000000
     20250      1103  TIP3      H1             -4.3931323914       -0.3527322895       19.8696241901  TIP3      967             0.0000000000
     20251      1103  TIP3      H2             -4.0500299507        0.9558509988       20.5321345668  TIP3      967             0.0000000000
     20252      1104  TIP3      OH2            -0.9038609701       -1.2225634818       37.4397144044  TIP3      968             0.0000000000
     20253      1104  TIP3      H1             -1.8816342168       -1.0916272943       37.3760233316  TIP3      968             0.0000000000
     20254      1104  TIP3      H2             -0.6440870994       -0.3142490759       37.6656783140  TIP3      968             0.0000000000
     20255      1105  TIP3      OH2             1.1570050192        1.1520605850       20.9576313216  TIP3      969             0.0000000000
     20256      1105  TIP3      H1              0.6399957427        0.3168509662       21.0124334319  TIP3      969             0.0000000000
     20257      1105  TIP3      H2              1.4014108507        1.2061214071       20.0283871384  TIP3      969             0.0000000000
     20258      1106  TIP3      OH2           -13.1927495247       -2.9146744732       38.3035189579  TIP3      970             0.0000000000
     20259      1106  TIP3      H1            -13.8784423623       -3.4673855853       38.7235739551  TIP3      970             0.0000000000
     20260      1106  TIP3      H2            -13.5878986845       -2.7576228189       37.4140845023  TIP3      970             0.0000000000
     20261      1107  TIP3      OH2            -8.7911150113       -2.5633967431       20.2785945426  TIP3      971             0.0000000000
     20262      1107  TIP3      H1             -8.0420311339       -2.6103593923       20.8795599723  TIP3      971             0.0000000000
     20263      1107  TIP3      H2             -8.4392150548       -2.0461177626       19.5385083109  TIP3      971             0.0000000000
     20264      1108  TIP3      OH2            -6.4589519425       -3.0307871528       37.2592858067  TIP3      972             0.0000000000
     20265      1108  TIP3      H1             -6.6030066202       -2.4735730118       36.4634629995  TIP3      972             0.0000000000
     20266      1108  TIP3      H2             -6.6169807510       -3.9540738669       36.9219923195  TIP3      972             0.0000000000
     20267      1109  TIP3      OH2            -0.5162715445       -3.4519506883       34.9283457932  TIP3      973             0.0000000000
     20268      1109  TIP3      H1              0.2868705207       -2.9211385291       35.1233858997  TIP3      973             0.0000000000
     20269      1109  TIP3      H2             -1.1151550211       -2.7097161076       34.6774308980  TIP3      973             0.0000000000
     20270      1110  TIP3      OH2           -11.5369695882       -6.2035177508       37.6459844387  TIP3      974             0.0000000000
     20271      1110  TIP3      H1            -11.4602926798       -7.0097485472       38.1713391560  TIP3      974             0.0000000000
     20272      1110  TIP3      H2            -11.4134805301       -5.5263681725       38.3428521079  TIP3      974             0.0000000000
     20273      1111  TIP3      OH2            -7.3586078933       -4.8766334131       22.9755700900  TIP3      975             0.0000000000
     20274      1111  TIP3      H1             -7.8433636098       -4.1870638903       23.4378004038  TIP3      975             0.0000000000
     20275      1111  TIP3      H2             -8.0692753485       -5.4405884799       22.6410787177  TIP3      975             0.0000000000
     20276      1112  TIP3      OH2            -8.0462400282       -6.9006772936       34.4365702659  TIP3      976             0.0000000000
     20277      1112  TIP3      H1             -8.6930765490       -6.1744080033       34.3192439493  TIP3      976             0.0000000000
     20278      1112  TIP3      H2             -7.4548357788       -6.7156537696       33.6897070795  TIP3      976             0.0000000000
     20279      1113  TIP3      OH2            -2.7438833135       -4.1100866419       38.1302352965  TIP3      977             0.0000000000
     20280      1113  TIP3      H1             -1.8666647612       -4.5143667117       37.9764601675  TIP3      977             0.0000000000
     20281      1113  TIP3      H2             -3.1368135150       -4.7188100656       38.7882261013  TIP3      977             0.0000000000
     20282      1114  TIP3      OH2            -7.1894476482       -9.2906399110       35.4598017954  TIP3      978             0.0000000000
     20283      1114  TIP3      H1             -7.1579579191       -9.9825732718       34.7692554023  TIP3      978             0.0000000000
     20284      1114  TIP3      H2             -7.4628572151       -8.5039389539       34.9396989448  TIP3      978             0.0000000000
     20285      1115  TIP3      OH2            -6.8845415202      -11.2706597497       33.4160239280  TIP3      979             0.0000000000
     20286      1115  TIP3      H1             -6.2155878295      -10.7728113086       32.8841903926  TIP3      979             0.0000000000
     20287      1115  TIP3      H2             -7.6619349545      -11.0314119452       32.8767637107  TIP3      979             0.0000000000
     20288      1116  TIP3      OH2            -5.5441634750       -5.6797909962       33.0900866300  TIP3      980             0.0000000000
     20289      1116  TIP3      H1             -4.8016629576       -5.0671517791       33.0337960237  TIP3      980             0.0000000000
     20290      1116  TIP3      H2             -6.2872853102       -5.0419519317       33.0196982452  TIP3      980             0.0000000000
     20291      1117  TIP3      OH2            -1.6194784468       -8.1764519591       38.4585136399  TIP3      981             0.0000000000
     20292      1117  TIP3      H1             -1.5633152068       -8.8735080472       39.1442605580  TIP3      981             0.0000000000
     20293      1117  TIP3      H2             -0.9808553883       -7.5381882950       38.7988025136  TIP3      981             0.0000000000
     20294      1118  TIP3      OH2            -0.0739554783       -4.9621584957       37.3268281306  TIP3      982             0.0000000000
     20295      1118  TIP3      H1             -0.3560811513       -4.2993712127       36.6544787372  TIP3      982             0.0000000000
     20296      1118  TIP3      H2              0.8238732024       -5.1733760764       37.0059280010  TIP3      982             0.0000000000
     20297      1119  TIP3      OH2            -8.7077370445       -8.6549370939       37.7173498060  TIP3      983             0.0000000000
     20298      1119  TIP3      H1             -9.6260014671       -8.7798486890       37.4441695338  TIP3      983             0.0000000000
     20299      1119  TIP3      H2             -8.2500897483       -8.9390257480       36.8987403665  TIP3      983             0.0000000000
     20300      1120  TIP3      OH2            -6.3447069889      -13.8782730343       33.4906708095  TIP3      984             0.0000000000
     20301      1120  TIP3      H1             -6.5882391734      -12.9222487514       33.5196705431  TIP3      984             0.0000000000
     20302      1120  TIP3      H2             -7.2044737892      -14.2639601855       33.2670915860  TIP3      984             0.0000000000
     20303      1121  TIP3      OH2            -5.5016092622       -9.5996362633       37.6102197157  TIP3      985             0.0000000000
     20304      1121  TIP3      H1             -6.1555292209       -9.8097421035       38.3104505103  TIP3      985             0.0000000000
     20305      1121  TIP3      H2             -6.0741208689       -9.5538126936       36.8105576312  TIP3      985             0.0000000000
     20306      1122  TIP3      OH2            -3.1130599282      -10.4023143291       36.4317823771  TIP3      986             0.0000000000
     20307      1122  TIP3      H1             -4.0065334773      -10.3189878748       36.8187100103  TIP3      986             0.0000000000
     20308      1122  TIP3      H2             -2.6423585198      -10.9035883576       37.1382892358  TIP3      986             0.0000000000
     20309      1123  TIP3      OH2            -1.6464520213      -11.7236141293       38.3635639285  TIP3      987             0.0000000000
     20310      1123  TIP3      H1             -1.3028920009      -12.6421065663       38.4473151485  TIP3      987             0.0000000000
     20311      1123  TIP3      H2             -1.3548808852      -11.2866788307       39.1944627601  TIP3      987             0.0000000000
     20312      1124  TIP3      OH2           -11.4177456085      -10.5893540002       37.7564071781  TIP3      988             0.0000000000
     20313      1124  TIP3      H1            -11.6025326081      -11.4769732817       37.3807792572  TIP3      988             0.0000000000
     20314      1124  TIP3      H2            -11.4007816231      -10.7524374936       38.7285798022  TIP3      988             0.0000000000
     20315      1125  TIP3      OH2            -6.7098654561      -14.1127281178       36.2297306717  TIP3      989             0.0000000000
     20316      1125  TIP3      H1             -5.9484357710      -14.6893047606       36.4307881929  TIP3      989             0.0000000000
     20317      1125  TIP3      H2             -6.6880309218      -14.1730821303       35.2548120740  TIP3      989             0.0000000000
     20318      1126  TIP3      OH2            -6.5883348276      -12.9810530516       39.1590766940  TIP3      990             0.0000000000
     20319      1126  TIP3      H1             -6.5928968531      -13.3888481708       38.2662405155  TIP3      990             0.0000000000
     20320      1126  TIP3      H2             -6.9295943450      -12.0828206540       38.9357251600  TIP3      990             0.0000000000
     20321      1127  TIP3      OH2           -14.2717056692        4.0115985533       26.4176955931  TIP3      991             0.0000000000
     20322      1127  TIP3      H1            -14.8278573871        3.4609750577       25.8106735177  TIP3      991             0.0000000000
     20323      1127  TIP3      H2            -13.9528624706        3.3345175368       27.0416894769  TIP3      991             0.0000000000
     20324      1128  TIP3      OH2           -13.4298473663        2.0795547244       28.1795560486  TIP3      992             0.0000000000
     20325      1128  TIP3      H1            -14.2063658193        1.6582997439       28.5842662054  TIP3      992             0.0000000000
     20326      1128  TIP3      H2            -13.0530880127        2.5094029356       28.9811347015  TIP3      992             0.0000000000
     20327      1129  TIP3      OH2             4.0727156043        3.0976814350       30.8875202465  TIP3      993             0.0000000000
     20328      1129  TIP3      H1              4.4181213853        3.5151737378       31.6953754713  TIP3      993             0.0000000000
     20329      1129  TIP3      H2              4.0348168334        3.8217694481       30.2464741388  TIP3      993             0.0000000000
     20330      1130  TIP3      OH2             3.4372005107        2.4282782522       34.0134474646  TIP3      994             0.0000000000
     20331      1130  TIP3      H1              3.2470933378        1.6027620504       33.5203976756  TIP3      994             0.0000000000
     20332      1130  TIP3      H2              3.9398271843        2.0868842444       34.7768731425  TIP3      994             0.0000000000
     20333      1131  TIP3      OH2             2.5868038803       -1.5103852758       39.0085824279  TIP3      995             0.0000000000
     20334      1131  TIP3      H1              1.6677619917       -1.2642717737       39.2446751664  TIP3      995             0.0000000000
     20335      1131  TIP3      H2              3.1020073628       -0.7338168266       39.3326429725  TIP3      995             0.0000000000
     20336      1132  TIP3      OH2             3.1450162884       -3.5583704305       24.0929089175  TIP3      996             0.0000000000
     20337      1132  TIP3      H1              3.8150904045       -2.9089580613       24.3550673405  TIP3      996             0.0000000000
     20338      1132  TIP3      H2              3.2032448196       -4.2089606929       24.8331918293  TIP3      996             0.0000000000
     20339      1133  TIP3      OH2             3.9708255711       -5.1442558688       26.0841134819  TIP3      997             0.0000000000
     20340      1133  TIP3      H1              3.4069507530       -5.9024220067       26.3525316678  TIP3      997             0.0000000000
     20341      1133  TIP3      H2              4.4756677399       -5.0215266397       26.9180132254  TIP3      997             0.0000000000
     20342      1134  TIP3      OH2             3.4306753191       -2.5552213423       30.4978757970  TIP3      998             0.0000000000
     20343      1134  TIP3      H1              4.1480038043       -3.2271635880       30.5408665244  TIP3      998             0.0000000000
     20344      1134  TIP3      H2              3.9362106842       -1.7494530032       30.2691972558  TIP3      998             0.0000000000
     20345      1135  TIP3      OH2             2.1418685975        0.1519343755       33.2608274363  TIP3      999             0.0000000000
     20346      1135  TIP3      H1              1.4031760042        0.5965404809       33.7342922453  TIP3      999             0.0000000000
     20347      1135  TIP3      H2              1.6819026682       -0.2122451188       32.4694750186  TIP3      999             0.0000000000
     20348      1136  TIP3      OH2             4.4807433253       -5.2189523747       22.3600669519  TIP3      1000            0.0000000000
     20349      1136  TIP3      H1              4.0947471996       -6.1026933194       22.2950295841  TIP3      1000            0.0000000000
     20350      1136  TIP3      H2              3.8903969544       -4.7749644377       22.9926980377  TIP3      1000            0.0000000000
     20351      1137  TIP3      OH2             2.5371050444       -7.3799928353       27.0407053921  TIP3      1001            0.0000000000
     20352      1137  TIP3      H1              1.9805595071       -7.8248058111       26.3707084989  TIP3      1001            0.0000000000
     20353      1137  TIP3      H2              1.8755661785       -7.3131523594       27.7625941266  TIP3      1001            0.0000000000
     20354      1138  TIP3      OH2           -13.1910296271       -4.8470297974       30.8841096142  TIP3      1002            0.0000000000
     20355      1138  TIP3      H1            -13.2460290210       -5.1031535544       29.9351253051  TIP3      1002            0.0000000000
     20356      1138  TIP3      H2            -12.2232399901       -4.9546443489       31.0587326488  TIP3      1002            0.0000000000
     20357      1139  TIP3      OH2             2.8460940693       -4.8939817280       36.4314637782  TIP3      1003            0.0000000000
     20358      1139  TIP3      H1              3.3629192322       -5.7164676377       36.6031845151  TIP3      1003            0.0000000000
     20359      1139  TIP3      H2              3.5444234613       -4.2787052309       36.1281988060  TIP3      1003            0.0000000000
     20360      1140  TIP3      OH2             4.0564978365       -7.1985890685       37.6278891187  TIP3      1004            0.0000000000
     20361      1140  TIP3      H1              3.2626878652       -7.6411268322       37.2487505260  TIP3      1004            0.0000000000
     20362      1140  TIP3      H2              4.7511608738       -7.8016212665       37.2683102421  TIP3      1004            0.0000000000
     20363      1141  TIP3      OH2             1.7000459402       -9.2563243794       25.3165042128  TIP3      1005            0.0000000000
     20364      1141  TIP3      H1              1.7812888454      -10.2003896003       25.5951299380  TIP3      1005            0.0000000000
     20365      1141  TIP3      H2              2.5432026272       -9.0966405212       24.8591661261  TIP3      1005            0.0000000000
     20366      1142  TIP3      OH2             2.2867872504       -8.1122547541       30.6514137493  TIP3      1006            0.0000000000
     20367      1142  TIP3      H1              3.2604491367       -8.0335811535       30.5186363622  TIP3      1006            0.0000000000
     20368      1142  TIP3      H2              2.2726264765       -8.0217919028       31.6238664769  TIP3      1006            0.0000000000
     20369      1143  TIP3      OH2             2.4379631892       -7.7634163997       33.3250302546  TIP3      1007            0.0000000000
     20370      1143  TIP3      H1              1.6427028543       -7.5269240856       33.8426721201  TIP3      1007            0.0000000000
     20371      1143  TIP3      H2              2.8167934567       -6.8635406663       33.1756223710  TIP3      1007            0.0000000000
     20372      1144  TIP3      OH2           -13.1551007144       -9.3292593235       36.1043433321  TIP3      1008            0.0000000000
     20373      1144  TIP3      H1            -12.5588887011       -9.6844718364       36.8048962404  TIP3      1008            0.0000000000
     20374      1144  TIP3      H2            -13.8860076064       -9.9904503679       36.1301798201  TIP3      1008            0.0000000000
     20375      1145  TIP3      OH2             4.4960781324      -13.2345774960       38.3959771906  TIP3      1009            0.0000000000
     20376      1145  TIP3      H1              4.9302395625      -13.8905172351       37.8186301609  TIP3      1009            0.0000000000
     20377      1145  TIP3      H2              4.3798040047      -12.4679882089       37.7912726418  TIP3      1009            0.0000000000
     20378      1146  TIP3      OH2             1.7048008908      -12.0399494742       25.4480915009  TIP3      1010            0.0000000000
     20379      1146  TIP3      H1              2.2180068236      -12.0593985982       26.2875926773  TIP3      1010            0.0000000000
     20380      1146  TIP3      H2              1.9948756052      -12.8848228288       25.0626511606  TIP3      1010            0.0000000000
     20381      1147  TIP3      OH2           -12.0512623270      -11.1948911488       30.2820478111  TIP3      1011            0.0000000000
     20382      1147  TIP3      H1            -11.7850417667      -12.1198175923       30.0867225586  TIP3      1011            0.0000000000
     20383      1147  TIP3      H2            -11.2702904983      -10.6680036149       30.0406934460  TIP3      1011            0.0000000000
     20384      1148  TIP3      OH2           -13.8019381200       -8.1720317663       30.8206775440  TIP3      1012            0.0000000000
     20385      1148  TIP3      H1            -13.4224392681       -8.6072026465       30.0355330288  TIP3      1012            0.0000000000
     20386      1148  TIP3      H2            -13.1735031313       -7.4504698259       30.9609352026  TIP3      1012            0.0000000000
     20387      1149  TIP3      OH2             3.7812369070      -11.1348722947       36.8811015148  TIP3      1013            0.0000000000
     20388      1149  TIP3      H1              3.0948037882      -10.7088292571       37.4410772314  TIP3      1013            0.0000000000
     20389      1149  TIP3      H2              3.2113309692      -11.3958056810       36.1304674333  TIP3      1013            0.0000000000
     20390      1150  TIP3      OH2           -13.7879381078      -11.5132906109       24.8689828698  TIP3      1014            0.0000000000
     20391      1150  TIP3      H1            -14.2939365986      -10.7678107828       24.4963808353  TIP3      1014            0.0000000000
     20392      1150  TIP3      H2            -13.4632845607      -11.9310975817       24.0471538241  TIP3      1014            0.0000000000
     20393      1151  TIP3      OH2             1.1118643299        3.2539686218       26.7939728400  TIP3      1015            0.0000000000
     20394      1151  TIP3      H1              1.8383856535        3.2052534478       26.1331874653  TIP3      1015            0.0000000000
     20395      1151  TIP3      H2              1.5334230385        3.7098595516       27.5485180987  TIP3      1015            0.0000000000
     20396      1152  TIP3      OH2           -13.7090584848      -13.2868305127       33.2049618553  TIP3      1016            0.0000000000
     20397      1152  TIP3      H1            -14.3024472183      -13.7104860670       33.8519318761  TIP3      1016            0.0000000000
     20398      1152  TIP3      H2            -14.0521119887      -12.3843698259       33.1555314454  TIP3      1016            0.0000000000
     20399      1153  TIP3      OH2           -11.6788280494       -0.0803058207       37.0446397998  TIP3      1017            0.0000000000
     20400      1153  TIP3      H1            -12.5307268006        0.3120712192       36.7919182228  TIP3      1017            0.0000000000
     20401      1153  TIP3      H2            -11.8641975608       -1.0279582153       37.0398555034  TIP3      1017            0.0000000000
     20402      1154  TIP3      OH2            -8.4872832366        1.4596528114       33.7594582566  TIP3      1018            0.0000000000
     20403      1154  TIP3      H1             -8.4812426107        2.3769833254       33.4152005681  TIP3      1018            0.0000000000
     20404      1154  TIP3      H2             -7.5282119589        1.2623962517       33.6499222262  TIP3      1018            0.0000000000
     20405      1155  TIP3      OH2            -4.3751544487        2.8615399204       36.3768970807  TIP3      1019            0.0000000000
     20406      1155  TIP3      H1             -4.6775560917        2.3779042612       37.1847895668  TIP3      1019            0.0000000000
     20407      1155  TIP3      H2             -3.4370102280        2.5755031933       36.4005599699  TIP3      1019            0.0000000000
     20408      1156  TIP3      OH2            -1.9846558630        4.4904140801       35.6102933052  TIP3      1020            0.0000000000
     20409      1156  TIP3      H1             -1.7660328246        3.5628964613       35.8326809805  TIP3      1020            0.0000000000
     20410      1156  TIP3      H2             -1.7156386973        4.9546991097       36.4295182358  TIP3      1020            0.0000000000
     20411      1157  TIP3      OH2             2.8864658017      -13.7472781186       34.9732695472  TIP3      1021            0.0000000000
     20412      1157  TIP3      H1              2.2514097650      -13.1818959571       34.5204305024  TIP3      1021            0.0000000000
     20413      1157  TIP3      H2              2.8108541937      -14.5818613183       34.4601749146  TIP3      1021            0.0000000000
     20414      1158  TIP3      OH2           -11.1913503360        4.3393910648       33.0999444230  TIP3      1022            0.0000000000
     20415      1158  TIP3      H1            -11.9299198353        4.9664841816       32.9693832520  TIP3      1022            0.0000000000
     20416      1158  TIP3      H2            -11.1787764675        4.2114379033       34.0601053790  TIP3      1022            0.0000000000
     20417      1159  TIP3      OH2            -8.6572374885        3.9956178476       32.4732919021  TIP3      1023            0.0000000000
     20418      1159  TIP3      H1             -9.6357470990        4.0905454962       32.5639613492  TIP3      1023            0.0000000000
     20419      1159  TIP3      H2             -8.5331564974        4.6240463882       31.7429488092  TIP3      1023            0.0000000000
     20420      1160  TIP3      OH2            -4.1979400617        3.6429555388       31.6994736099  TIP3      1024            0.0000000000
     20421      1160  TIP3      H1             -4.9900103619        4.1675974236       31.4637921050  TIP3      1024            0.0000000000
     20422      1160  TIP3      H2             -3.7730085510        4.2741959714       32.3130598277  TIP3      1024            0.0000000000
     20423      1161  TIP3      OH2            -1.9573560739        2.6038873189       33.2974582215  TIP3      1025            0.0000000000
     20424      1161  TIP3      H1             -2.4038841091        2.6636266859       32.4341846425  TIP3      1025            0.0000000000
     20425      1161  TIP3      H2             -1.2054382075        3.2134585992       33.1480820049  TIP3      1025            0.0000000000
     20426      1162  TIP3      OH2             0.6670665407        3.8502047306       32.7468057492  TIP3      1026            0.0000000000
     20427      1162  TIP3      H1              0.7259297452        4.7687621154       32.4583878280  TIP3      1026            0.0000000000
     20428      1162  TIP3      H2              0.9100808563        3.3536227275       31.9313897361  TIP3      1026            0.0000000000
     20429      1163  TIP3      OH2           -11.8604604658        2.6900867196       30.3087132120  TIP3      1027            0.0000000000
     20430      1163  TIP3      H1            -12.1516169117        2.2003517538       31.1106116711  TIP3      1027            0.0000000000
     20431      1163  TIP3      H2            -10.9182734669        2.4131974507       30.2385277455  TIP3      1027            0.0000000000
     20432      1164  TIP3      OH2            -9.4137608702        1.9620803104       29.3191415800  TIP3      1028            0.0000000000
     20433      1164  TIP3      H1             -9.7460366719        1.0485004951       29.4734382826  TIP3      1028            0.0000000000
     20434      1164  TIP3      H2             -8.4695173279        1.8387226172       29.5407142558  TIP3      1028            0.0000000000
     20435      1165  TIP3      OH2            -6.7810118571        1.3197508787       29.9625173045  TIP3      1029            0.0000000000
     20436      1165  TIP3      H1             -6.9935375348        0.4092295666       30.2656666912  TIP3      1029            0.0000000000
     20437      1165  TIP3      H2             -6.2041592178        1.6495676456       30.6732356162  TIP3      1029            0.0000000000
     20438      1166  TIP3      OH2            -4.6040637793      -12.3953678394       28.5357286456  TIP3      1030            0.0000000000
     20439      1166  TIP3      H1             -5.2558993886      -12.9366424689       29.0396100051  TIP3      1030            0.0000000000
     20440      1166  TIP3      H2             -3.7620153245      -12.8335162061       28.7349939071  TIP3      1030            0.0000000000
     20441      1167  TIP3      OH2             1.4838030780      -13.8664028582       29.1495556541  TIP3      1031            0.0000000000
     20442      1167  TIP3      H1              2.1280944101      -13.3431856720       28.6262904099  TIP3      1031            0.0000000000
     20443      1167  TIP3      H2              0.6433292060      -13.6823448785       28.6706775233  TIP3      1031            0.0000000000
     20444      1168  TIP3      OH2             3.3910811884      -12.8713484976       27.3775928651  TIP3      1032            0.0000000000
     20445      1168  TIP3      H1              4.0355122941      -13.5154401715       27.0072962433  TIP3      1032            0.0000000000
     20446      1168  TIP3      H2              3.9918109446      -12.1788104414       27.7347855465  TIP3      1032            0.0000000000
     20447      1169  TIP3      OH2           -11.3980672633      -13.6555692577       26.9734594794  TIP3      1033            0.0000000000
     20448      1169  TIP3      H1            -12.3367049781      -13.8155332867       26.7562316489  TIP3      1033            0.0000000000
     20449      1169  TIP3      H2            -11.0159027086      -14.5111148133       26.6531915266  TIP3      1033            0.0000000000
     20450      1170  TIP3      OH2            -6.8750698688      -14.1133398455       26.9135820707  TIP3      1034            0.0000000000
     20451      1170  TIP3      H1             -6.1943710049      -13.6804668311       26.3781867651  TIP3      1034            0.0000000000
     20452      1170  TIP3      H2             -6.5616642961      -13.9739920250       27.8208630679  TIP3      1034            0.0000000000
     20453      1171  TIP3      OH2            -0.9840886599      -13.5482247138       27.9691704493  TIP3      1035            0.0000000000
     20454      1171  TIP3      H1             -1.5173067682      -13.3809847425       27.1793733701  TIP3      1035            0.0000000000
     20455      1171  TIP3      H2             -1.3945607737      -14.3847583347       28.2949959778  TIP3      1035            0.0000000000
     20456      1172  TIP3      OH2             1.0641867019      -13.7868003701       23.3560933414  TIP3      1036            0.0000000000
     20457      1172  TIP3      H1              0.1977148551      -14.0554003118       23.7394409174  TIP3      1036            0.0000000000
     20458      1172  TIP3      H2              1.6346641421      -14.4416190181       23.8051787684  TIP3      1036            0.0000000000
     20459      1173  TIP3      OH2           -12.5687865026        2.3591583264       23.7095367850  TIP3      1037            0.0000000000
     20460      1173  TIP3      H1            -12.0406894042        1.9043309270       23.0490137532  TIP3      1037            0.0000000000
     20461      1173  TIP3      H2            -12.6044326874        3.2745838576       23.3532834231  TIP3      1037            0.0000000000
     20462      1174  TIP3      OH2            -4.0144508106        3.2183006938       21.8015991268  TIP3      1038            0.0000000000
     20463      1174  TIP3      H1             -3.0612490964        3.3898966822       21.6353789593  TIP3      1038            0.0000000000
     20464      1174  TIP3      H2             -4.4253334722        4.0083034419       21.4140807920  TIP3      1038            0.0000000000
     20465      1175  TIP3      OH2             2.9140327133        2.8167191215       24.7502302848  TIP3      1039            0.0000000000
     20466      1175  TIP3      H1              2.6561818201        1.9618207247       24.3207021791  TIP3      1039            0.0000000000
     20467      1175  TIP3      H2              2.9205961004        3.4108883281       23.9705866306  TIP3      1039            0.0000000000
     20468      1176  TIP3      OH2           -11.7301815196      -13.0417348591       36.3895377784  TIP3      1040            0.0000000000
     20469      1176  TIP3      H1            -12.2586140742      -13.8648368850       36.3987488562  TIP3      1040            0.0000000000
     20470      1176  TIP3      H2            -10.9962442694      -13.2557847792       37.0121165459  TIP3      1040            0.0000000000
     20471      1177  TIP3      OH2            -9.7649575069      -13.7903224098       38.1198259998  TIP3      1041            0.0000000000
     20472      1177  TIP3      H1             -8.9123841157      -14.0322855577       37.7129213958  TIP3      1041            0.0000000000
     20473      1177  TIP3      H2             -9.9734324684      -14.6280387602       38.5775077430  TIP3      1041            0.0000000000
     20474      1178  TIP3      OH2            -1.1226700350      -14.3415821718       38.1731663536  TIP3      1042            0.0000000000
     20475      1178  TIP3      H1             -1.0081768312      -14.7955504293       39.0348077813  TIP3      1042            0.0000000000
     20476      1178  TIP3      H2             -0.2039660925      -14.4536229535       37.8423686216  TIP3      1042            0.0000000000
     20477      1179  TIP3      OH2             1.6460389510        1.1675501521       36.6888284608  TIP3      1043            0.0000000000
     20478      1179  TIP3      H1              0.9590815831        1.1535338317       35.9915107078  TIP3      1043            0.0000000000
     20479      1179  TIP3      H2              1.6743952389        2.1401417808       36.8043393281  TIP3      1043            0.0000000000
     20480      1180  TIP3      OH2            16.9544242196       -4.1863639612       26.8709868814  TIP3      1044            0.0000000000
     20481      1180  TIP3      H1             16.8872124900       -3.8729525394       27.7877232567  TIP3      1044            0.0000000000
     20482      1180  TIP3      H2             16.7938480373       -3.3333081665       26.3982013511  TIP3      1044            0.0000000000
     20483      1181  TIP3      OH2            15.9254988074       -5.4409353977       30.2735346415  TIP3      1045            0.0000000000
     20484      1181  TIP3      H1             16.0482355314       -5.8898852376       31.1423279103  TIP3      1045            0.0000000000
     20485      1181  TIP3      H2             15.1039768804       -5.8645197209       29.9421197338  TIP3      1045            0.0000000000
     20486      1182  TIP3      OH2             7.5744895645       -5.5892996157       31.5799495613  TIP3      1046            0.0000000000
     20487      1182  TIP3      H1              7.4047394379       -6.3458651481       32.1652630380  TIP3      1046            0.0000000000
     20488      1182  TIP3      H2              8.2753951671       -5.1452226184       32.0954441217  TIP3      1046            0.0000000000
     20489      1183  TIP3      OH2            18.9533445873       -2.3899344107       29.4186653021  TIP3      1047            0.0000000000
     20490      1183  TIP3      H1             19.0582282741       -3.1855503351       29.9607497750  TIP3      1047            0.0000000000
     20491      1183  TIP3      H2             19.3299862428       -1.7016203182       30.0000164845  TIP3      1047            0.0000000000
     20492      1184  TIP3      OH2             8.9425252658       -0.8341249990       30.0582235126  TIP3      1048            0.0000000000
     20493      1184  TIP3      H1              8.6586820481       -1.7474053335       29.8570013048  TIP3      1048            0.0000000000
     20494      1184  TIP3      H2              9.9075765560       -0.9950044243       29.9677062922  TIP3      1048            0.0000000000
     20495      1185  TIP3      OH2             5.5539855443       -7.6789752091       25.6366243356  TIP3      1049            0.0000000000
     20496      1185  TIP3      H1              5.6174390876       -6.7417461572       25.4137354778  TIP3      1049            0.0000000000
     20497      1185  TIP3      H2              4.6813732508       -7.7155490871       26.0682139240  TIP3      1049            0.0000000000
     20498      1186  TIP3      OH2             5.5353032462       -5.5580533468       28.3136973293  TIP3      1050            0.0000000000
     20499      1186  TIP3      H1              5.8150074966       -6.5029971290       28.4063851669  TIP3      1050            0.0000000000
     20500      1186  TIP3      H2              6.2777927528       -5.1894377245       27.8173995657  TIP3      1050            0.0000000000
     20501      1187  TIP3      OH2            16.5035916425        3.0236217574       28.5852361576  TIP3      1051            0.0000000000
     20502      1187  TIP3      H1             17.1537186577        2.3766814470       28.2056901240  TIP3      1051            0.0000000000
     20503      1187  TIP3      H2             15.9749208663        2.4046789346       29.1106004101  TIP3      1051            0.0000000000
     20504      1188  TIP3      OH2            13.7225994032       -2.4589126046       31.0496972197  TIP3      1052            0.0000000000
     20505      1188  TIP3      H1             13.9629813126       -3.0744727334       30.3462169238  TIP3      1052            0.0000000000
     20506      1188  TIP3      H2             14.5996990396       -2.1086452673       31.3036296487  TIP3      1052            0.0000000000
     20507      1189  TIP3      OH2            22.0163563968      -11.4506113381       31.0528463695  TIP3      1053            0.0000000000
     20508      1189  TIP3      H1             22.2474224756      -10.8541663166       31.8100645457  TIP3      1053            0.0000000000
     20509      1189  TIP3      H2             22.8885836208      -11.6995254698       30.7163212627  TIP3      1053            0.0000000000
     20510      1190  TIP3      OH2            17.5030815941       -8.1220964544       30.9801577654  TIP3      1054            0.0000000000
     20511      1190  TIP3      H1             17.6028954715       -9.1029838772       31.0392365698  TIP3      1054            0.0000000000
     20512      1190  TIP3      H2             17.1925385153       -8.0817816528       30.0474763793  TIP3      1054            0.0000000000
     20513      1191  TIP3      OH2            10.4142775468      -10.6936788599       27.5695248073  TIP3      1055            0.0000000000
     20514      1191  TIP3      H1             10.4773719380       -9.7168255850       27.4835085191  TIP3      1055            0.0000000000
     20515      1191  TIP3      H2              9.6834220932      -10.8929004493       26.9571504222  TIP3      1055            0.0000000000
     20516      1192  TIP3      OH2            17.8527990595      -10.4233204004       26.6845605872  TIP3      1056            0.0000000000
     20517      1192  TIP3      H1             18.3663005250      -10.6669405879       27.4865664543  TIP3      1056            0.0000000000
     20518      1192  TIP3      H2             18.4901947435       -9.8161130801       26.2600959922  TIP3      1056            0.0000000000
     20519      1193  TIP3      OH2             6.4617587282       -8.0405489495       28.3360040304  TIP3      1057            0.0000000000
     20520      1193  TIP3      H1              7.1074569409       -8.5425086312       28.8733975406  TIP3      1057            0.0000000000
     20521      1193  TIP3      H2              6.9286879706       -8.1106722925       27.4841653650  TIP3      1057            0.0000000000
     20522      1194  TIP3      OH2            11.5115690954       -6.1019932340       28.5291159185  TIP3      1058            0.0000000000
     20523      1194  TIP3      H1             12.3956018795       -6.3532723574       28.8796088588  TIP3      1058            0.0000000000
     20524      1194  TIP3      H2             11.2752989013       -6.9268831886       28.0448993189  TIP3      1058            0.0000000000
     20525      1195  TIP3      OH2            22.4307607007       -9.9921324300       33.3250750038  TIP3      1059            0.0000000000
     20526      1195  TIP3      H1             22.0575488990       -9.1134149719       33.0695162820  TIP3      1059            0.0000000000
     20527      1195  TIP3      H2             22.8537331580       -9.8068790670       34.1751284869  TIP3      1059            0.0000000000
     20528      1196  TIP3      OH2             9.3673122973      -11.7433511013       32.0016799655  TIP3      1060            0.0000000000
     20529      1196  TIP3      H1              8.9033823320      -10.8728136130       31.9956918394  TIP3      1060            0.0000000000
     20530      1196  TIP3      H2              9.3581422705      -11.9154579166       32.9555412190  TIP3      1060            0.0000000000
     20531      1197  TIP3      OH2            15.9682899862       -1.9629335518       25.7643835541  TIP3      1061            0.0000000000
     20532      1197  TIP3      H1             16.2510318870       -1.4943548433       24.9446824272  TIP3      1061            0.0000000000
     20533      1197  TIP3      H2             15.5163134380       -1.2331270597       26.2298038846  TIP3      1061            0.0000000000
     20534      1198  TIP3      OH2            11.6671441780       -3.7474827948       32.1664081465  TIP3      1062            0.0000000000
     20535      1198  TIP3      H1             11.0161773823       -3.0946048449       32.5084203818  TIP3      1062            0.0000000000
     20536      1198  TIP3      H2             12.3396656999       -3.1467013699       31.7693095398  TIP3      1062            0.0000000000
     20537      1199  TIP3      OH2            19.8744114495      -10.4619003314       28.6767500569  TIP3      1063            0.0000000000
     20538      1199  TIP3      H1             20.2231787034      -11.2297506085       29.1548974350  TIP3      1063            0.0000000000
     20539      1199  TIP3      H2             20.5552007021       -9.7924994434       28.8512921040  TIP3      1063            0.0000000000
     20540      1200  TIP3      OH2             8.3482360857       -9.5780327731       29.3979084155  TIP3      1064            0.0000000000
     20541      1200  TIP3      H1              8.4566692181       -9.0456000193       30.2210490644  TIP3      1064            0.0000000000
     20542      1200  TIP3      H2              9.2465594204       -9.9310287522       29.3138536124  TIP3      1064            0.0000000000
     20543      1201  TIP3      OH2            10.0124986871       -1.8276227854       33.0917953448  TIP3      1065            0.0000000000
     20544      1201  TIP3      H1              9.7365190531       -1.4697480730       32.2297811532  TIP3      1065            0.0000000000
     20545      1201  TIP3      H2              9.1573200454       -1.7360637380       33.5826941376  TIP3      1065            0.0000000000
     20546      1202  TIP3      OH2            19.7608767039       -0.4000139702       31.1165354106  TIP3      1066            0.0000000000
     20547      1202  TIP3      H1             18.8083232340       -0.1738604923       31.2029760568  TIP3      1066            0.0000000000
     20548      1202  TIP3      H2             20.0441715866        0.3731701156       30.5944960441  TIP3      1066            0.0000000000
     20549      1203  TIP3      OH2            19.5441294297      -12.0340080225       32.1316058272  TIP3      1067            0.0000000000
     20550      1203  TIP3      H1             18.9080247276      -11.4309665473       31.6730845687  TIP3      1067            0.0000000000
     20551      1203  TIP3      H2             20.3515061671      -11.9395682885       31.5785341456  TIP3      1067            0.0000000000
     20552      1204  TIP3      OH2            12.6455144805      -13.7547050905       29.6992479685  TIP3      1068            0.0000000000
     20553      1204  TIP3      H1             12.6459551817      -14.6990705789       29.4510864999  TIP3      1068            0.0000000000
     20554      1204  TIP3      H2             11.6704236038      -13.6087214460       29.8097638048  TIP3      1068            0.0000000000
     20555      1205  TIP3      OH2            18.3012475062        1.3699661512       27.5127313635  TIP3      1069            0.0000000000
     20556      1205  TIP3      H1             18.3465175916        0.8158134665       26.7138707101  TIP3      1069            0.0000000000
     20557      1205  TIP3      H2             19.1771004251        1.8111859843       27.4421152492  TIP3      1069            0.0000000000
     20558      1206  TIP3      OH2            19.5700550848       -0.6209726885       25.9930082727  TIP3      1070            0.0000000000
     20559      1206  TIP3      H1             18.9248893600       -0.6963828238       25.2514291434  TIP3      1070            0.0000000000
     20560      1206  TIP3      H2             19.1562475692       -1.1696900130       26.6835236195  TIP3      1070            0.0000000000
     20561      1207  TIP3      OH2            20.8223391064       -2.1947793147       34.6684824605  TIP3      1071            0.0000000000
     20562      1207  TIP3      H1             20.9345593813       -2.8194060072       33.9114223387  TIP3      1071            0.0000000000
     20563      1207  TIP3      H2             20.9855014196       -1.3342455782       34.2211353192  TIP3      1071            0.0000000000
     20564      1208  TIP3      OH2            15.4922716088       -5.1646982819       24.7565749497  TIP3      1072            0.0000000000
     20565      1208  TIP3      H1             14.7006032904       -4.7033511897       25.0693990981  TIP3      1072            0.0000000000
     20566      1208  TIP3      H2             16.1748189216       -4.6781177423       25.2659994582  TIP3      1072            0.0000000000
     20567      1209  TIP3      OH2            22.8559435486       -5.7493287628       32.2965068143  TIP3      1073            0.0000000000
     20568      1209  TIP3      H1             22.2757664764       -4.9745141355       32.4646206568  TIP3      1073            0.0000000000
     20569      1209  TIP3      H2             23.4236345184       -5.3933309353       31.5899316172  TIP3      1073            0.0000000000
     20570      1210  TIP3      OH2            19.0132324267       -5.8481650114       25.2479822209  TIP3      1074            0.0000000000
     20571      1210  TIP3      H1             18.4380297256       -5.1722307178       25.6593913428  TIP3      1074            0.0000000000
     20572      1210  TIP3      H2             19.5897364523       -6.1513032793       25.9850922967  TIP3      1074            0.0000000000
     20573      1211  TIP3      OH2            18.8503986498       -6.5593672986       34.3396797975  TIP3      1075            0.0000000000
     20574      1211  TIP3      H1             18.6895033268       -5.6823338160       34.7108440302  TIP3      1075            0.0000000000
     20575      1211  TIP3      H2             18.1448170336       -6.5746604343       33.6596366002  TIP3      1075            0.0000000000
     20576      1212  TIP3      OH2            10.0743819805       -4.1958524390       27.3334071653  TIP3      1076            0.0000000000
     20577      1212  TIP3      H1              9.2803351023       -4.6076692746       26.9471734712  TIP3      1076            0.0000000000
     20578      1212  TIP3      H2             10.6440469881       -4.9481426523       27.6276391705  TIP3      1076            0.0000000000
     20579      1213  TIP3      OH2            11.5944737823       -1.2467293104       29.8080370986  TIP3      1077            0.0000000000
     20580      1213  TIP3      H1             11.5721241284       -1.2746629584       28.8303215378  TIP3      1077            0.0000000000
     20581      1213  TIP3      H2             12.4455144292       -1.6621177171       30.0483626814  TIP3      1077            0.0000000000
     20582      1214  TIP3      OH2            10.4956748519       -5.8292395466       31.0755499656  TIP3      1078            0.0000000000
     20583      1214  TIP3      H1             10.6710664571       -5.7847343897       30.1132674825  TIP3      1078            0.0000000000
     20584      1214  TIP3      H2             10.9909122567       -5.0455106891       31.4072943403  TIP3      1078            0.0000000000
     20585      1215  TIP3      OH2            17.1756464088        0.2461017222       31.4252530567  TIP3      1079            0.0000000000
     20586      1215  TIP3      H1             17.0976367715        0.9490738522       32.0978922169  TIP3      1079            0.0000000000
     20587      1215  TIP3      H2             16.6466465529       -0.4632020320       31.8340984717  TIP3      1079            0.0000000000
     20588      1216  TIP3      OH2            11.6614178350       -1.5284486613       35.3614193581  TIP3      1080            0.0000000000
     20589      1216  TIP3      H1             10.9855998303       -0.8537882310       35.6253060530  TIP3      1080            0.0000000000
     20590      1216  TIP3      H2             11.3243012664       -1.7288511981       34.4640083793  TIP3      1080            0.0000000000
     20591      1217  TIP3      OH2             8.3629306667       -4.5807411859       34.1639538590  TIP3      1081            0.0000000000
     20592      1217  TIP3      H1              8.4115612215       -3.8743293798       34.8283372671  TIP3      1081            0.0000000000
     20593      1217  TIP3      H2              7.9501591684       -5.3062200847       34.6680122605  TIP3      1081            0.0000000000
     20594      1218  TIP3      OH2            14.7507947412        0.5705595040       26.4224722079  TIP3      1082            0.0000000000
     20595      1218  TIP3      H1             15.4421269008        1.2461489422       26.4793471415  TIP3      1082            0.0000000000
     20596      1218  TIP3      H2             14.4958973351        0.5729397693       25.4841009433  TIP3      1082            0.0000000000
     20597      1219  TIP3      OH2            10.0174980716        0.4216187513       36.2286535385  TIP3      1083            0.0000000000
     20598      1219  TIP3      H1              9.8073642078        0.7677556681       35.3325986271  TIP3      1083            0.0000000000
     20599      1219  TIP3      H2              9.1000210287        0.2791751481       36.5577490011  TIP3      1083            0.0000000000
     20600      1220  TIP3      OH2            21.1991286090      -14.3507054810       22.7616198281  TIP3      1084            0.0000000000
     20601      1220  TIP3      H1             20.2926184595      -14.0711466383       22.9602695703  TIP3      1084            0.0000000000
     20602      1220  TIP3      H2             21.2125246620      -14.0955105737       21.8043118560  TIP3      1084            0.0000000000
     20603      1221  TIP3      OH2             8.0586100350       -5.5225667684       25.6029789198  TIP3      1085            0.0000000000
     20604      1221  TIP3      H1              8.3288345601       -4.9323949330       24.8802532641  TIP3      1085            0.0000000000
     20605      1221  TIP3      H2              8.2276379729       -6.4113562436       25.2584276806  TIP3      1085            0.0000000000
     20606      1222  TIP3      OH2             5.6676381321       -2.8142132998       33.6560201086  TIP3      1086            0.0000000000
     20607      1222  TIP3      H1              5.2003885845       -2.8062579087       32.8059940138  TIP3      1086            0.0000000000
     20608      1222  TIP3      H2              6.0638071029       -3.7070241444       33.6387917099  TIP3      1086            0.0000000000
     20609      1223  TIP3      OH2             5.3369142300       -0.1439887936       30.4362494242  TIP3      1087            0.0000000000
     20610      1223  TIP3      H1              6.2709066317       -0.3590037853       30.3467745869  TIP3      1087            0.0000000000
     20611      1223  TIP3      H2              5.3708191218        0.6210448216       31.0279427340  TIP3      1087            0.0000000000
     20612      1224  TIP3      OH2            23.4039926914        0.4915358315       36.1926300935  TIP3      1088            0.0000000000
     20613      1224  TIP3      H1             23.3047197812       -0.4578743207       36.0011925152  TIP3      1088            0.0000000000
     20614      1224  TIP3      H2             22.5703502212        0.6309849772       36.6958231787  TIP3      1088            0.0000000000
     20615      1225  TIP3      OH2            13.9581468027       -0.0951091236       35.1740178755  TIP3      1089            0.0000000000
     20616      1225  TIP3      H1             14.1885285659        0.7294669320       35.6532851966  TIP3      1089            0.0000000000
     20617      1225  TIP3      H2             13.0117411524       -0.2297848545       35.3745903012  TIP3      1089            0.0000000000
     20618      1226  TIP3      OH2            13.8406246335        3.7093464004       24.2544383220  TIP3      1090            0.0000000000
     20619      1226  TIP3      H1             14.2593325946        3.6504530006       23.3546714219  TIP3      1090            0.0000000000
     20620      1226  TIP3      H2             14.4726237829        4.2756842569       24.7212538115  TIP3      1090            0.0000000000
     20621      1227  TIP3      OH2             8.4962503224        2.4473662565       26.8865654864  TIP3      1091            0.0000000000
     20622      1227  TIP3      H1              8.8386765192        2.4331003145       27.8052058926  TIP3      1091            0.0000000000
     20623      1227  TIP3      H2              7.8802759574        1.6853934999       26.9086041739  TIP3      1091            0.0000000000
     20624      1228  TIP3      OH2            17.6064962897        3.3031924963       21.9083655223  TIP3      1092            0.0000000000
     20625      1228  TIP3      H1             17.9847442363        3.2846735958       21.0097353198  TIP3      1092            0.0000000000
     20626      1228  TIP3      H2             17.5445704171        2.3520231242       22.1183924355  TIP3      1092            0.0000000000
     20627      1229  TIP3      OH2            16.9152771831        2.7344642957       24.7416539661  TIP3      1093            0.0000000000
     20628      1229  TIP3      H1             15.9729831016        2.7020026118       24.5519470759  TIP3      1093            0.0000000000
     20629      1229  TIP3      H2             17.1942465263        1.8261111699       24.5018232000  TIP3      1093            0.0000000000
     20630      1230  TIP3      OH2            20.5953020917       -8.0903235397       36.5274639252  TIP3      1094            0.0000000000
     20631      1230  TIP3      H1             19.9497990415       -7.8283309898       35.8460531723  TIP3      1094            0.0000000000
     20632      1230  TIP3      H2             20.4400696723       -9.0494343151       36.5822392087  TIP3      1094            0.0000000000
     20633      1231  TIP3      OH2             7.7794080052       -1.4685369167       34.4957533236  TIP3      1095            0.0000000000
     20634      1231  TIP3      H1              7.8073906991       -1.7914008006       35.4191500894  TIP3      1095            0.0000000000
     20635      1231  TIP3      H2              6.9408442627       -1.8868230630       34.1960719922  TIP3      1095            0.0000000000
     20636      1232  TIP3      OH2            10.0571907824      -13.3807153816       29.8664952335  TIP3      1096            0.0000000000
     20637      1232  TIP3      H1              9.1760147173      -13.7572726282       29.6805038753  TIP3      1096            0.0000000000
     20638      1232  TIP3      H2              9.7970571410      -12.5783836047       30.3767093190  TIP3      1096            0.0000000000
     20639      1233  TIP3      OH2            15.2195863003      -13.4645878099       33.5201190962  TIP3      1097            0.0000000000
     20640      1233  TIP3      H1             15.6428209405      -13.8386487807       34.3316535484  TIP3      1097            0.0000000000
     20641      1233  TIP3      H2             14.2809323613      -13.4234254005       33.7944230936  TIP3      1097            0.0000000000
     20642      1234  TIP3      OH2            18.2838414354       -9.3688805004       35.2869182654  TIP3      1098            0.0000000000
     20643      1234  TIP3      H1             17.5588107784       -9.8009074732       35.7991174143  TIP3      1098            0.0000000000
     20644      1234  TIP3      H2             18.0228764669       -8.4425879370       35.3554150091  TIP3      1098            0.0000000000
     20645      1235  TIP3      OH2            19.3274177063       -4.4895060765       21.5003061616  TIP3      1099            0.0000000000
     20646      1235  TIP3      H1             19.4315428517       -3.5682680632       21.1945340212  TIP3      1099            0.0000000000
     20647      1235  TIP3      H2             19.2954669957       -4.2743829805       22.4494961734  TIP3      1099            0.0000000000
     20648      1236  TIP3      OH2            11.7776363047       -8.1137770157       31.5460252752  TIP3      1100            0.0000000000
     20649      1236  TIP3      H1             10.9070495346       -8.5496065965       31.6704756567  TIP3      1100            0.0000000000
     20650      1236  TIP3      H2             11.4346527422       -7.1886811074       31.4820842040  TIP3      1100            0.0000000000
     20651      1237  TIP3      OH2            10.6872423222       -8.1399075862       27.0145033288  TIP3      1101            0.0000000000
     20652      1237  TIP3      H1              9.7455917891       -7.9011492783       26.8712785038  TIP3      1101            0.0000000000
     20653      1237  TIP3      H2             11.0061820411       -8.2428265679       26.0772314469  TIP3      1101            0.0000000000
     20654      1238  TIP3      OH2            15.9387768526       -7.9911157437       24.9080927293  TIP3      1102            0.0000000000
     20655      1238  TIP3      H1             15.6866236187       -7.0448056000       24.9674909877  TIP3      1102            0.0000000000
     20656      1238  TIP3      H2             16.7405722511       -7.9138623291       24.3388872788  TIP3      1102            0.0000000000
     20657      1239  TIP3      OH2            15.1332307833       -6.9964094428       36.4123113601  TIP3      1103            0.0000000000
     20658      1239  TIP3      H1             14.6367771052       -7.8044378169       36.6123373922  TIP3      1103            0.0000000000
     20659      1239  TIP3      H2             15.7661043137       -6.9661931953       37.1543823949  TIP3      1103            0.0000000000
     20660      1240  TIP3      OH2            16.8692527311       -7.8210433493       28.3855790473  TIP3      1104            0.0000000000
     20661      1240  TIP3      H1             17.0054128060       -6.9384207824       27.9989146449  TIP3      1104            0.0000000000
     20662      1240  TIP3      H2             16.8512192442       -8.3906012432       27.6050899417  TIP3      1104            0.0000000000
     20663      1241  TIP3      OH2             7.1434641977       -7.1733740578       34.1154490382  TIP3      1105            0.0000000000
     20664      1241  TIP3      H1              7.9129775816       -7.5342792909       33.6121359594  TIP3      1105            0.0000000000
     20665      1241  TIP3      H2              6.8438007902       -8.0071058430       34.5085460236  TIP3      1105            0.0000000000
     20666      1242  TIP3      OH2             5.3014271431      -10.7152930655       27.6145434274  TIP3      1106            0.0000000000
     20667      1242  TIP3      H1              5.8560002327      -10.9526978553       28.3813972343  TIP3      1106            0.0000000000
     20668      1242  TIP3      H2              5.3184089682       -9.7429730035       27.6435145895  TIP3      1106            0.0000000000
     20669      1243  TIP3      OH2             5.5958121066      -10.1528423455       22.7874984173  TIP3      1107            0.0000000000
     20670      1243  TIP3      H1              6.2696742066       -9.8766538454       22.1493672307  TIP3      1107            0.0000000000
     20671      1243  TIP3      H2              4.8305297605       -9.6629406078       22.3952212917  TIP3      1107            0.0000000000
     20672      1244  TIP3      OH2            16.2199310886       -6.5974458417       32.7013812298  TIP3      1108            0.0000000000
     20673      1244  TIP3      H1             16.7305772647       -7.2850106459       32.2032132057  TIP3      1108            0.0000000000
     20674      1244  TIP3      H2             15.5711092836       -7.1395913768       33.2048848558  TIP3      1108            0.0000000000
     20675      1245  TIP3      OH2            13.3434229118      -10.8364868307       27.6001899728  TIP3      1109            0.0000000000
     20676      1245  TIP3      H1             12.3962561685      -10.7319268688       27.3616977435  TIP3      1109            0.0000000000
     20677      1245  TIP3      H2             13.3084879312      -11.1582133475       28.5127949075  TIP3      1109            0.0000000000
     20678      1246  TIP3      OH2             8.1246867473       -8.6057740114       26.2392815763  TIP3      1110            0.0000000000
     20679      1246  TIP3      H1              7.2749011218       -8.4853253325       25.7520611556  TIP3      1110            0.0000000000
     20680      1246  TIP3      H2              8.2697827200       -9.5635928061       26.2288832247  TIP3      1110            0.0000000000
     20681      1247  TIP3      OH2            11.3966218229       -8.6397513890       24.5140329511  TIP3      1111            0.0000000000
     20682      1247  TIP3      H1             12.3071707484       -8.8916390273       24.2745532179  TIP3      1111            0.0000000000
     20683      1247  TIP3      H2             10.9046352362       -9.1512758021       23.8227676609  TIP3      1111            0.0000000000
     20684      1248  TIP3      OH2            17.5811912660      -10.7738597826       30.8804021641  TIP3      1112            0.0000000000
     20685      1248  TIP3      H1             16.8876933670      -10.8488234822       31.5679479782  TIP3      1112            0.0000000000
     20686      1248  TIP3      H2             17.2411187262      -11.3936829977       30.2004013308  TIP3      1112            0.0000000000
     20687      1249  TIP3      OH2            20.4160286190        4.4120915838       37.3881713884  TIP3      1113            0.0000000000
     20688      1249  TIP3      H1             20.8020662231        4.6288893635       36.5165151297  TIP3      1113            0.0000000000
     20689      1249  TIP3      H2             21.1407137255        4.6784009772       37.9810716176  TIP3      1113            0.0000000000
     20690      1250  TIP3      OH2             8.2018105617       -3.1033866424       36.8787095811  TIP3      1114            0.0000000000
     20691      1250  TIP3      H1              8.8923703265       -3.2585560152       37.5641822936  TIP3      1114            0.0000000000
     20692      1250  TIP3      H2              7.3806503808       -3.2794113103       37.3851096392  TIP3      1114            0.0000000000
     20693      1251  TIP3      OH2            13.7002718428       -7.0586170754       29.8245951873  TIP3      1115            0.0000000000
     20694      1251  TIP3      H1             14.2660125962       -7.7758927765       29.4899026898  TIP3      1115            0.0000000000
     20695      1251  TIP3      H2             13.1452927477       -7.5299422825       30.4902854622  TIP3      1115            0.0000000000
     20696      1252  TIP3      OH2             8.7507515119      -11.4844732805       25.5548584419  TIP3      1116            0.0000000000
     20697      1252  TIP3      H1              7.9258910749      -11.9519004271       25.8054674483  TIP3      1116            0.0000000000
     20698      1252  TIP3      H2              8.5751863753      -11.1103136529       24.6756781131  TIP3      1116            0.0000000000
     20699      1253  TIP3      OH2            14.1253880644       -9.5874112792       31.3117168092  TIP3      1117            0.0000000000
     20700      1253  TIP3      H1             13.2857090264       -9.0853296355       31.4025210199  TIP3      1117            0.0000000000
     20701      1253  TIP3      H2             14.5508165950       -9.3737087655       32.1551371861  TIP3      1117            0.0000000000
     20702      1254  TIP3      OH2            21.1822226521       -3.6457999823       32.5398364236  TIP3      1118            0.0000000000
     20703      1254  TIP3      H1             21.5990412683       -3.0938084150       31.8297162335  TIP3      1118            0.0000000000
     20704      1254  TIP3      H2             20.3615037464       -3.9301284639       32.0912174148  TIP3      1118            0.0000000000
     20705      1255  TIP3      OH2            15.1425674718       -2.5224617999       35.0566404697  TIP3      1119            0.0000000000
     20706      1255  TIP3      H1             14.5350279807       -3.1771769536       35.4086797672  TIP3      1119            0.0000000000
     20707      1255  TIP3      H2             14.6545862684       -1.6995768147       35.2496660054  TIP3      1119            0.0000000000
     20708      1256  TIP3      OH2            18.1588686958       -7.7975772500       23.4056807182  TIP3      1120            0.0000000000
     20709      1256  TIP3      H1             18.6136176197       -8.4434108603       23.9717551227  TIP3      1120            0.0000000000
     20710      1256  TIP3      H2             18.5233448800       -6.9689932429       23.7782298947  TIP3      1120            0.0000000000
     20711      1257  TIP3      OH2             9.0703924484       -3.6579336911       29.8148140451  TIP3      1121            0.0000000000
     20712      1257  TIP3      H1              9.4757544621       -3.7739196731       28.9279101525  TIP3      1121            0.0000000000
     20713      1257  TIP3      H2              9.2081111145       -4.5325197610       30.2242085327  TIP3      1121            0.0000000000
     20714      1258  TIP3      OH2             5.5724683162       -5.1749989955       35.3448693378  TIP3      1122            0.0000000000
     20715      1258  TIP3      H1              6.1180814737       -5.8433470028       35.7902652704  TIP3      1122            0.0000000000
     20716      1258  TIP3      H2              5.4092365332       -5.6308125370       34.5022954297  TIP3      1122            0.0000000000
     20717      1259  TIP3      OH2            12.1346879747       -5.8075138806       37.0677176524  TIP3      1123            0.0000000000
     20718      1259  TIP3      H1             11.4286428866       -6.1831109976       36.4892628922  TIP3      1123            0.0000000000
     20719      1259  TIP3      H2             12.9223225217       -6.0688334998       36.5699426982  TIP3      1123            0.0000000000
     20720      1260  TIP3      OH2            17.5656369822       -0.4678729285       35.2008782976  TIP3      1124            0.0000000000
     20721      1260  TIP3      H1             16.7184763459       -0.3991773630       34.7477081877  TIP3      1124            0.0000000000
     20722      1260  TIP3      H2             17.3240340520       -0.0038159007       36.0228323270  TIP3      1124            0.0000000000
     20723      1261  TIP3      OH2            23.2598223014       -2.2058925247       35.7912643219  TIP3      1125            0.0000000000
     20724      1261  TIP3      H1             22.3294867864       -2.2797555549       35.4726382627  TIP3      1125            0.0000000000
     20725      1261  TIP3      H2             23.7321992647       -2.4336164667       34.9634981866  TIP3      1125            0.0000000000
     20726      1262  TIP3      OH2            19.0922770874       -4.9652657871       31.1016311725  TIP3      1126            0.0000000000
     20727      1262  TIP3      H1             18.1280092706       -5.0071881433       30.9721334426  TIP3      1126            0.0000000000
     20728      1262  TIP3      H2             19.3989973464       -5.5432586025       30.3707214901  TIP3      1126            0.0000000000
     20729      1263  TIP3      OH2            10.5975145535       -0.4195991300       27.2891450062  TIP3      1127            0.0000000000
     20730      1263  TIP3      H1             10.9740000384        0.4129068848       26.9310743909  TIP3      1127            0.0000000000
     20731      1263  TIP3      H2              9.6773422913       -0.3292775860       27.0023757679  TIP3      1127            0.0000000000
     20732      1264  TIP3      OH2            12.1067393861       -2.5770953609       26.2974233684  TIP3      1128            0.0000000000
     20733      1264  TIP3      H1             11.6766385443       -1.7168144824       26.4660633115  TIP3      1128            0.0000000000
     20734      1264  TIP3      H2             11.3935797627       -3.1752698520       26.5841181221  TIP3      1128            0.0000000000
     20735      1265  TIP3      OH2            12.9500695596        1.6042237836       33.1380125630  TIP3      1129            0.0000000000
     20736      1265  TIP3      H1             13.6566154745        2.2239138932       32.8658207661  TIP3      1129            0.0000000000
     20737      1265  TIP3      H2             13.3929376096        1.1400878637       33.8758358091  TIP3      1129            0.0000000000
     20738      1266  TIP3      OH2            11.1009684823        1.9870727336       26.1803152898  TIP3      1130            0.0000000000
     20739      1266  TIP3      H1             10.1350559358        2.1594217687       26.2927587366  TIP3      1130            0.0000000000
     20740      1266  TIP3      H2             11.4569504667        2.8789325325       26.3696896923  TIP3      1130            0.0000000000
     20741      1267  TIP3      OH2            16.0877095148       -2.2369738101       32.4798069332  TIP3      1131            0.0000000000
     20742      1267  TIP3      H1             15.8639605697       -2.2634450915       33.4366986554  TIP3      1131            0.0000000000
     20743      1267  TIP3      H2             16.4880521804       -3.1112635353       32.3905180498  TIP3      1131            0.0000000000
     20744      1268  TIP3      OH2            19.3378838884       -1.7855124476       21.6270294142  TIP3      1132            0.0000000000
     20745      1268  TIP3      H1             18.9612573892       -1.5276954414       22.4989375597  TIP3      1132            0.0000000000
     20746      1268  TIP3      H2             18.5452283635       -1.6060926140       21.1052546368  TIP3      1132            0.0000000000
     20747      1269  TIP3      OH2            19.2784058408        2.1378235741       34.6557521810  TIP3      1133            0.0000000000
     20748      1269  TIP3      H1             18.4093651765        1.7034675395       34.5495579917  TIP3      1133            0.0000000000
     20749      1269  TIP3      H2             19.2632324420        2.8001609164       33.9394311403  TIP3      1133            0.0000000000
     20750      1270  TIP3      OH2             7.5688978055      -10.5956145141       34.6089399910  TIP3      1134            0.0000000000
     20751      1270  TIP3      H1              7.7810922489      -10.1078531184       33.7839923195  TIP3      1134            0.0000000000
     20752      1270  TIP3      H2              6.7626125922      -11.1037957558       34.4448993646  TIP3      1134            0.0000000000
     20753      1271  TIP3      OH2            19.6300516808       -3.3474484374       24.0552034705  TIP3      1135            0.0000000000
     20754      1271  TIP3      H1             19.5900617210       -4.1832175966       24.5366025106  TIP3      1135            0.0000000000
     20755      1271  TIP3      H2             20.5082753339       -3.0084716166       24.3002477838  TIP3      1135            0.0000000000
     20756      1272  TIP3      OH2             6.9396514456        1.1064979955       32.7740624941  TIP3      1136            0.0000000000
     20757      1272  TIP3      H1              7.5371557321        0.3497071867       32.7566810975  TIP3      1136            0.0000000000
     20758      1272  TIP3      H2              7.3134686089        1.5971861879       33.5184736698  TIP3      1136            0.0000000000
     20759      1273  TIP3      OH2            11.5883214534       -1.2016253214       22.4931371639  TIP3      1137            0.0000000000
     20760      1273  TIP3      H1             12.4276975907       -1.2839137335       22.9707405471  TIP3      1137            0.0000000000
     20761      1273  TIP3      H2             11.3609233610       -0.2682301353       22.6396284539  TIP3      1137            0.0000000000
     20762      1274  TIP3      OH2            16.3301232233      -10.9250018587       33.4959555292  TIP3      1138            0.0000000000
     20763      1274  TIP3      H1             17.0037532512      -10.9564325424       34.1859635634  TIP3      1138            0.0000000000
     20764      1274  TIP3      H2             15.9395843497      -11.8208884605       33.5684076363  TIP3      1138            0.0000000000
     20765      1275  TIP3      OH2            16.9089024282      -11.4097402761       24.4507599310  TIP3      1139            0.0000000000
     20766      1275  TIP3      H1             16.7119285154      -10.5107706802       24.1543804176  TIP3      1139            0.0000000000
     20767      1275  TIP3      H2             17.3376531263      -11.2218970231       25.3184711081  TIP3      1139            0.0000000000
     20768      1276  TIP3      OH2            14.1274015222        0.4223574108       23.3018039590  TIP3      1140            0.0000000000
     20769      1276  TIP3      H1             13.2583377684        0.8417461440       23.4165370017  TIP3      1140            0.0000000000
     20770      1276  TIP3      H2             14.2844788171        0.5496745481       22.3438095955  TIP3      1140            0.0000000000
     20771      1277  TIP3      OH2            13.9135993581       -9.8726546802       24.8272950341  TIP3      1141            0.0000000000
     20772      1277  TIP3      H1             14.5060648488       -9.0871239292       24.8756694980  TIP3      1141            0.0000000000
     20773      1277  TIP3      H2             13.6881602989      -10.0001695588       25.7667691016  TIP3      1141            0.0000000000
     20774      1278  TIP3      OH2            15.0573679352       -8.4293546927       34.1290094903  TIP3      1142            0.0000000000
     20775      1278  TIP3      H1             15.4059634808       -7.9528012860       34.9150465810  TIP3      1142            0.0000000000
     20776      1278  TIP3      H2             15.5770017659       -9.2631900260       34.1158531672  TIP3      1142            0.0000000000
     20777      1279  TIP3      OH2            14.7925895909      -12.4223320258       25.8506075045  TIP3      1143            0.0000000000
     20778      1279  TIP3      H1             14.2401186568      -11.8515034222       26.4311267617  TIP3      1143            0.0000000000
     20779      1279  TIP3      H2             15.4201230477      -11.7840564429       25.4447096270  TIP3      1143            0.0000000000
     20780      1280  TIP3      OH2            11.8722779686        1.8398706711       23.5811823388  TIP3      1144            0.0000000000
     20781      1280  TIP3      H1             12.6523511396        2.4287453803       23.6030997573  TIP3      1144            0.0000000000
     20782      1280  TIP3      H2             11.4453404047        2.0797477409       24.4304677670  TIP3      1144            0.0000000000
     20783      1281  TIP3      OH2            20.4012514015      -10.9605588108       35.0598562867  TIP3      1145            0.0000000000
     20784      1281  TIP3      H1             19.4961128412      -10.5827034543       35.0752359401  TIP3      1145            0.0000000000
     20785      1281  TIP3      H2             20.7282128786      -10.6582163295       34.1882322474  TIP3      1145            0.0000000000
     20786      1282  TIP3      OH2            19.4031714749       -6.8649428540       29.2001846660  TIP3      1146            0.0000000000
     20787      1282  TIP3      H1             18.8079013216       -7.3617569766       29.8088690345  TIP3      1146            0.0000000000
     20788      1282  TIP3      H2             20.2669038525       -7.2604854118       29.4914756865  TIP3      1146            0.0000000000
     20789      1283  TIP3      OH2             7.1379974650       -8.6809809048       20.3198419545  TIP3      1147            0.0000000000
     20790      1283  TIP3      H1              7.8050678387       -8.0054285854       20.5301581020  TIP3      1147            0.0000000000
     20791      1283  TIP3      H2              6.3033801002       -8.1956312990       20.2640788016  TIP3      1147            0.0000000000
     20792      1284  TIP3      OH2            20.4303627852        2.3035676125       30.7172482491  TIP3      1148            0.0000000000
     20793      1284  TIP3      H1             20.5153430049        2.9765955126       30.0113601563  TIP3      1148            0.0000000000
     20794      1284  TIP3      H2             21.3486045731        2.2737737070       31.0284020937  TIP3      1148            0.0000000000
     20795      1285  TIP3      OH2             7.4241403682      -13.6617925765       29.6990070112  TIP3      1149            0.0000000000
     20796      1285  TIP3      H1              7.3508250412      -13.6984110045       28.7195350217  TIP3      1149            0.0000000000
     20797      1285  TIP3      H2              7.2514145358      -14.6079297302       29.9374447461  TIP3      1149            0.0000000000
     20798      1286  TIP3      OH2             6.8950889465        0.3781281188       26.3487771669  TIP3      1150            0.0000000000
     20799      1286  TIP3      H1              6.0616175989        0.7128014018       26.7011133946  TIP3      1150            0.0000000000
     20800      1286  TIP3      H2              6.8726757446        0.7019524993       25.4297671420  TIP3      1150            0.0000000000
     20801      1287  TIP3      OH2             5.8018774964        2.8144557747       36.6159750993  TIP3      1151            0.0000000000
     20802      1287  TIP3      H1              5.8973338563        2.7961436225       37.5739242494  TIP3      1151            0.0000000000
     20803      1287  TIP3      H2              5.2896502391        1.9878856108       36.4815191369  TIP3      1151            0.0000000000
     20804      1288  TIP3      OH2            10.6418753685        2.2520839870       38.2308375274  TIP3      1152            0.0000000000
     20805      1288  TIP3      H1             11.5594584832        1.9194576253       38.2741749638  TIP3      1152            0.0000000000
     20806      1288  TIP3      H2             10.3363572840        1.7784417252       37.4280422303  TIP3      1152            0.0000000000
     20807      1289  TIP3      OH2            14.4215886795        1.1713795540       20.4638046588  TIP3      1153            0.0000000000
     20808      1289  TIP3      H1             13.5288630251        1.4705520431       20.1385421807  TIP3      1153            0.0000000000
     20809      1289  TIP3      H2             14.8897890461        0.9548104064       19.6454426405  TIP3      1153            0.0000000000
     20810      1290  TIP3      OH2            16.9466416461        1.0425692452       37.4735641596  TIP3      1154            0.0000000000
     20811      1290  TIP3      H1             16.6671633551        0.1199026925       37.7075357378  TIP3      1154            0.0000000000
     20812      1290  TIP3      H2             17.8238972322        1.0733947920       37.9205808316  TIP3      1154            0.0000000000
     20813      1291  TIP3      OH2             5.7356936547       -3.0309039162       37.9741075808  TIP3      1155            0.0000000000
     20814      1291  TIP3      H1              5.3697624466       -3.9311342953       38.0431288628  TIP3      1155            0.0000000000
     20815      1291  TIP3      H2              5.2770520307       -2.7172740894       37.1576452045  TIP3      1155            0.0000000000
     20816      1292  TIP3      OH2            10.0336567348       -2.9207535204       20.4279796047  TIP3      1156            0.0000000000
     20817      1292  TIP3      H1             10.7825152059       -2.6801810923       21.0001707347  TIP3      1156            0.0000000000
     20818      1292  TIP3      H2             10.3707506086       -2.6826106718       19.5570198741  TIP3      1156            0.0000000000
     20819      1293  TIP3      OH2            12.6661435271       -3.1872023680       37.3155912885  TIP3      1157            0.0000000000
     20820      1293  TIP3      H1             12.3912527023       -2.5554624945       36.6049594801  TIP3      1157            0.0000000000
     20821      1293  TIP3      H2             12.3488706464       -4.0482615230       36.9637229447  TIP3      1157            0.0000000000
     20822      1294  TIP3      OH2            18.3738224031       -3.2235069430       34.9407639615  TIP3      1158            0.0000000000
     20823      1294  TIP3      H1             19.2120088961       -2.7058851330       34.8819698092  TIP3      1158            0.0000000000
     20824      1294  TIP3      H2             17.7424735481       -2.4765373540       34.9672594771  TIP3      1158            0.0000000000
     20825      1295  TIP3      OH2             7.4212926684       -6.2863388488       37.5512826875  TIP3      1159            0.0000000000
     20826      1295  TIP3      H1              7.4495739967       -7.0716035568       38.1216120266  TIP3      1159            0.0000000000
     20827      1295  TIP3      H2              7.4277006753       -5.5981409988       38.2541141187  TIP3      1159            0.0000000000
     20828      1296  TIP3      OH2            11.4315076356       -5.1656131132       22.6033591236  TIP3      1160            0.0000000000
     20829      1296  TIP3      H1             11.5222698932       -5.6766103016       23.4116369726  TIP3      1160            0.0000000000
     20830      1296  TIP3      H2             10.8901146780       -5.7645796854       22.0625242154  TIP3      1160            0.0000000000
     20831      1297  TIP3      OH2            10.6639569851       -6.5141723068       34.9690246051  TIP3      1161            0.0000000000
     20832      1297  TIP3      H1              9.8382660422       -6.1275486032       34.6478093878  TIP3      1161            0.0000000000
     20833      1297  TIP3      H2             11.3191471601       -6.0708296004       34.3960461544  TIP3      1161            0.0000000000
     20834      1298  TIP3      OH2            16.3563302406       -4.1700778705       38.1535926428  TIP3      1162            0.0000000000
     20835      1298  TIP3      H1             16.9871463928       -4.2392176931       37.4044348123  TIP3      1162            0.0000000000
     20836      1298  TIP3      H2             16.6903544687       -4.9161527322       38.6866443955  TIP3      1162            0.0000000000
     20837      1299  TIP3      OH2            11.8528367832       -9.2111665575       35.7789855752  TIP3      1163            0.0000000000
     20838      1299  TIP3      H1             11.7163814075       -9.9419226791       35.1442511041  TIP3      1163            0.0000000000
     20839      1299  TIP3      H2             11.7273717731       -8.4444212840       35.1909233876  TIP3      1163            0.0000000000
     20840      1300  TIP3      OH2            11.6919581493      -11.0389872554       33.4004181873  TIP3      1164            0.0000000000
     20841      1300  TIP3      H1             12.4098481670      -10.6775977240       32.8516271364  TIP3      1164            0.0000000000
     20842      1300  TIP3      H2             10.8973093405      -10.7168844738       32.9322781736  TIP3      1164            0.0000000000
     20843      1301  TIP3      OH2            13.0378705952       -5.2268283309       34.0330148913  TIP3      1165            0.0000000000
     20844      1301  TIP3      H1             13.8316601323       -5.1942806976       33.4796319615  TIP3      1165            0.0000000000
     20845      1301  TIP3      H2             12.4262207738       -4.6839060170       33.4878748828  TIP3      1165            0.0000000000
     20846      1302  TIP3      OH2            17.3059193175       -7.8759320819       38.5767004018  TIP3      1166            0.0000000000
     20847      1302  TIP3      H1             17.4612182489       -8.6956792711       39.0973858989  TIP3      1166            0.0000000000
     20848      1302  TIP3      H2             18.1945701785       -7.5069419015       38.5793360131  TIP3      1166            0.0000000000
     20849      1303  TIP3      OH2            18.8757194465       -4.6349344483       37.2659576253  TIP3      1167            0.0000000000
     20850      1303  TIP3      H1             18.8487814976       -4.0480815594       36.4855307623  TIP3      1167            0.0000000000
     20851      1303  TIP3      H2             19.6794382967       -5.1290878236       37.0483770663  TIP3      1167            0.0000000000
     20852      1304  TIP3      OH2             9.9183096305       -8.3863311507       38.0999954056  TIP3      1168            0.0000000000
     20853      1304  TIP3      H1              9.0530894262       -8.8316134354       37.9511655424  TIP3      1168            0.0000000000
     20854      1304  TIP3      H2             10.1495033948       -8.1428205727       37.1889587311  TIP3      1168            0.0000000000
     20855      1305  TIP3      OH2            12.3931919612      -13.7077101104       33.5825326317  TIP3      1169            0.0000000000
     20856      1305  TIP3      H1             12.1081669976      -12.7701020237       33.5396700464  TIP3      1169            0.0000000000
     20857      1305  TIP3      H2             11.5851972334      -14.1859846220       33.3319151099  TIP3      1169            0.0000000000
     20858      1306  TIP3      OH2            13.7109101261       -9.5350860626       37.6792559515  TIP3      1170            0.0000000000
     20859      1306  TIP3      H1             13.0247622339       -9.8590713361       38.2957448424  TIP3      1170            0.0000000000
     20860      1306  TIP3      H2             13.1643761997       -9.4653825473       36.8634152206  TIP3      1170            0.0000000000
     20861      1307  TIP3      OH2            16.1780887519      -10.2229855095       36.6704470098  TIP3      1171            0.0000000000
     20862      1307  TIP3      H1             15.2578908838      -10.0611396248       36.9591695239  TIP3      1171            0.0000000000
     20863      1307  TIP3      H2             16.4997567774      -10.7147324959       37.4592754330  TIP3      1171            0.0000000000
     20864      1308  TIP3      OH2            17.0786670431      -11.8890611975       38.5724421220  TIP3      1172            0.0000000000
     20865      1308  TIP3      H1             17.3163098013      -12.8386158815       38.4957014411  TIP3      1172            0.0000000000
     20866      1308  TIP3      H2             17.6698924110      -11.5485652040       39.2683957851  TIP3      1172            0.0000000000
     20867      1309  TIP3      OH2             7.7530850693      -10.2432479951       37.6604681136  TIP3      1173            0.0000000000
     20868      1309  TIP3      H1              7.6201731580      -10.9814779996       37.0296883791  TIP3      1173            0.0000000000
     20869      1309  TIP3      H2              7.5377344456      -10.6391406821       38.5285017731  TIP3      1173            0.0000000000
     20870      1310  TIP3      OH2            12.2188469704      -14.1279272573       36.4685755020  TIP3      1174            0.0000000000
     20871      1310  TIP3      H1             12.9301098211      -14.7945120877       36.4565682898  TIP3      1174            0.0000000000
     20872      1310  TIP3      H2             12.0877974810      -14.0341776368       35.5102559646  TIP3      1174            0.0000000000
     20873      1311  TIP3      OH2            12.3416137176      -13.0442785509       39.0139770201  TIP3      1175            0.0000000000
     20874      1311  TIP3      H1             12.3506851942      -13.3942120052       38.0932119424  TIP3      1175            0.0000000000
     20875      1311  TIP3      H2             11.9282440363      -12.1708179129       38.8637992085  TIP3      1175            0.0000000000
     20876      1312  TIP3      OH2             4.7408394033        4.1008203709       26.3540298081  TIP3      1176            0.0000000000
     20877      1312  TIP3      H1              4.0850338538        3.5988245960       25.8247292613  TIP3      1176            0.0000000000
     20878      1312  TIP3      H2              4.9621237943        3.4068195010       27.0220956705  TIP3      1176            0.0000000000
     20879      1313  TIP3      OH2             5.3970769510        2.3520716075       28.3496890447  TIP3      1177            0.0000000000
     20880      1313  TIP3      H1              4.7889510998        1.9753365031       29.0131250929  TIP3      1177            0.0000000000
     20881      1313  TIP3      H2              6.1731155611        2.5104932158       28.9279525366  TIP3      1177            0.0000000000
     20882      1314  TIP3      OH2            23.3540146989        2.8541532640       30.6930408720  TIP3      1178            0.0000000000
     20883      1314  TIP3      H1             23.3628034294        2.6377775675       31.6389129453  TIP3      1178            0.0000000000
     20884      1314  TIP3      H2             23.6786470770        3.7668673433       30.7353818155  TIP3      1178            0.0000000000
     20885      1315  TIP3      OH2            22.5460480513        2.4929157938       33.6434017703  TIP3      1179            0.0000000000
     20886      1315  TIP3      H1             22.2444082106        1.5919322458       33.3901234605  TIP3      1179            0.0000000000
     20887      1315  TIP3      H2             22.9987766726        2.3047874644       34.4902517485  TIP3      1179            0.0000000000
     20888      1316  TIP3      OH2            21.2295359218       -1.6930824825       38.9860087201  TIP3      1180            0.0000000000
     20889      1316  TIP3      H1             20.3707075684       -1.5570677194       39.4427136436  TIP3      1180            0.0000000000
     20890      1316  TIP3      H2             21.6250400317       -0.7929998559       39.0225907845  TIP3      1180            0.0000000000
     20891      1317  TIP3      OH2            22.3902879270       -3.6299363893       24.6600638591  TIP3      1181            0.0000000000
     20892      1317  TIP3      H1             23.3229790821       -3.4721650800       24.8262717355  TIP3      1181            0.0000000000
     20893      1317  TIP3      H2             22.2891098359       -4.5125618680       25.0787088647  TIP3      1181            0.0000000000
     20894      1318  TIP3      OH2            22.7290992888       -5.7121779665       26.2996844279  TIP3      1182            0.0000000000
     20895      1318  TIP3      H1             22.0073684975       -6.2999724213       26.6158043631  TIP3      1182            0.0000000000
     20896      1318  TIP3      H2             23.2655906413       -5.5880594419       27.1126647617  TIP3      1182            0.0000000000
     20897      1319  TIP3      OH2            22.5918865441       -2.7101831250       30.5181532491  TIP3      1183            0.0000000000
     20898      1319  TIP3      H1             23.2929475091       -3.3615861676       30.3200798387  TIP3      1183            0.0000000000
     20899      1319  TIP3      H2             23.0244820821       -1.8829875128       30.2424955025  TIP3      1183            0.0000000000
     20900      1320  TIP3      OH2            21.1594541894        0.1864654176       33.2886523699  TIP3      1184            0.0000000000
     20901      1320  TIP3      H1             20.5830536093        0.8214575802       33.7435349899  TIP3      1184            0.0000000000
     20902      1320  TIP3      H2             20.6393703704       -0.0227465256       32.4702232311  TIP3      1184            0.0000000000
     20903      1321  TIP3      OH2            20.6853889483       -7.2617542759       26.9112541283  TIP3      1185            0.0000000000
     20904      1321  TIP3      H1             20.2580160910       -8.0964720289       26.6248541697  TIP3      1185            0.0000000000
     20905      1321  TIP3      H2             20.2272287502       -7.0749356321       27.7605147312  TIP3      1185            0.0000000000
     20906      1322  TIP3      OH2             5.3553480465       -4.3859250050       30.8051608065  TIP3      1186            0.0000000000
     20907      1322  TIP3      H1              5.2728714870       -4.8047901020       29.9189659076  TIP3      1186            0.0000000000
     20908      1322  TIP3      H2              6.2758062555       -4.7007007544       31.0053203965  TIP3      1186            0.0000000000
     20909      1323  TIP3      OH2            22.0141871590       -4.9725134093       36.3229914071  TIP3      1187            0.0000000000
     20910      1323  TIP3      H1             22.2926387568       -5.8909747312       36.5441802778  TIP3      1187            0.0000000000
     20911      1323  TIP3      H2             22.5290101744       -4.7899681649       35.5145111536  TIP3      1187            0.0000000000
     20912      1324  TIP3      OH2            22.8865358427       -7.2885216450       37.5889220480  TIP3      1188            0.0000000000
     20913      1324  TIP3      H1             22.0748928733       -7.7327868525       37.2377120938  TIP3      1188            0.0000000000
     20914      1324  TIP3      H2             23.5519861531       -7.9512323545       37.3027605614  TIP3      1188            0.0000000000
     20915      1325  TIP3      OH2            20.4490871629      -10.3709194135       21.1071732657  TIP3      1189            0.0000000000
     20916      1325  TIP3      H1             21.3922532745      -10.5614867223       21.2104235088  TIP3      1189            0.0000000000
     20917      1325  TIP3      H2             20.2532459381      -10.9765680654       20.3664590311  TIP3      1189            0.0000000000
     20918      1326  TIP3      OH2            19.8591223441       -9.1662696853       25.2220502064  TIP3      1190            0.0000000000
     20919      1326  TIP3      H1             20.1980675971      -10.0956333507       25.3157052996  TIP3      1190            0.0000000000
     20920      1326  TIP3      H2             20.5676926453       -8.8001719757       24.6715261359  TIP3      1190            0.0000000000
     20921      1327  TIP3      OH2            21.3701095574       -8.2244136757       30.2271780379  TIP3      1191            0.0000000000
     20922      1327  TIP3      H1             22.3366808210       -8.2319631784       30.4207540124  TIP3      1191            0.0000000000
     20923      1327  TIP3      H2             21.0188755718       -8.2478054148       31.1445087220  TIP3      1191            0.0000000000
     20924      1328  TIP3      OH2            20.8921074263       -7.8962109834       32.8507401455  TIP3      1192            0.0000000000
     20925      1328  TIP3      H1             20.1387985501       -7.5455176683       33.3779629403  TIP3      1192            0.0000000000
     20926      1328  TIP3      H2             21.4398082844       -7.1047936859       32.6807258362  TIP3      1192            0.0000000000
     20927      1329  TIP3      OH2             5.5484455368       -9.1077297818       36.5478293687  TIP3      1193            0.0000000000
     20928      1329  TIP3      H1              6.4400154653       -9.3716958856       36.8501623952  TIP3      1193            0.0000000000
     20929      1329  TIP3      H2              5.0537471920       -9.9465552586       36.6550485676  TIP3      1193            0.0000000000
     20930      1330  TIP3      OH2            23.1702031063      -13.2098552457       38.3350765166  TIP3      1194            0.0000000000
     20931      1330  TIP3      H1             23.5668122655      -14.0038674816       37.9244231454  TIP3      1194            0.0000000000
     20932      1330  TIP3      H2             23.1909724334      -12.5727041795       37.5858971967  TIP3      1194            0.0000000000
     20933      1331  TIP3      OH2            20.7259591215      -11.5978334789       25.3067749398  TIP3      1195            0.0000000000
     20934      1331  TIP3      H1             21.1600673353      -12.1060802213       26.0299082109  TIP3      1195            0.0000000000
     20935      1331  TIP3      H2             20.3269744603      -12.3046345246       24.7742400934  TIP3      1195            0.0000000000
     20936      1332  TIP3      OH2             6.4144802395      -11.2535358825       30.3503556608  TIP3      1196            0.0000000000
     20937      1332  TIP3      H1              6.8728208210      -12.1236061769       30.2230231007  TIP3      1196            0.0000000000
     20938      1332  TIP3      H2              7.1655963541      -10.6311617657       30.2973813171  TIP3      1196            0.0000000000
     20939      1333  TIP3      OH2             4.8868982306       -7.9736117487       30.6933553795  TIP3      1197            0.0000000000
     20940      1333  TIP3      H1              5.3992315328       -8.5413609471       30.1025458522  TIP3      1197            0.0000000000
     20941      1333  TIP3      H2              5.5682676631       -7.4721985584       31.1564266704  TIP3      1197            0.0000000000
     20942      1334  TIP3      OH2            22.6078253132      -11.5784613378       36.2603626782  TIP3      1198            0.0000000000
     20943      1334  TIP3      H1             21.7006558830      -11.2155968173       36.0795974965  TIP3      1198            0.0000000000
     20944      1334  TIP3      H2             22.5120018854      -12.3848071621       35.7192645643  TIP3      1198            0.0000000000
     20945      1335  TIP3      OH2            23.3076173653      -11.9359732149       21.3589112875  TIP3      1199            0.0000000000
     20946      1335  TIP3      H1             23.0099572789      -12.6642971804       20.7884514799  TIP3      1199            0.0000000000
     20947      1335  TIP3      H2             24.0307842069      -11.5521296681       20.8377803470  TIP3      1199            0.0000000000
     20948      1336  TIP3      OH2             5.6308254457      -12.3745397423       24.2706629146  TIP3      1200            0.0000000000
     20949      1336  TIP3      H1              5.4686650126      -11.9611606149       25.1318029836  TIP3      1200            0.0000000000
     20950      1336  TIP3      H2              5.5800651901      -11.5822325378       23.6799389940  TIP3      1200            0.0000000000
     20951      1337  TIP3      OH2            20.4922059159        2.8962655887       27.0278649140  TIP3      1201            0.0000000000
     20952      1337  TIP3      H1             21.1318483066        2.7794763639       26.3012721750  TIP3      1201            0.0000000000
     20953      1337  TIP3      H2             20.9112867636        3.5249077440       27.6396784900  TIP3      1201            0.0000000000
     20954      1338  TIP3      OH2             5.1512520923      -13.1690177781       33.1056689767  TIP3      1202            0.0000000000
     20955      1338  TIP3      H1              4.4975856047      -13.5625998540       33.7157354310  TIP3      1202            0.0000000000
     20956      1338  TIP3      H2              4.6271991826      -12.5173107773       32.6206835321  TIP3      1202            0.0000000000
     20957      1339  TIP3      OH2             7.4861892312       -0.1712570705       37.0452796629  TIP3      1203            0.0000000000
     20958      1339  TIP3      H1              6.5464735548       -0.0211215302       36.8758470011  TIP3      1203            0.0000000000
     20959      1339  TIP3      H2              7.5111299719       -1.0385143482       37.4661301138  TIP3      1203            0.0000000000
     20960      1340  TIP3      OH2            10.1407407755        1.5261881688       33.6676341293  TIP3      1204            0.0000000000
     20961      1340  TIP3      H1             10.1226602816        2.4560904783       33.3456194320  TIP3      1204            0.0000000000
     20962      1340  TIP3      H2             11.0733367240        1.3176812897       33.4555032261  TIP3      1204            0.0000000000
     20963      1341  TIP3      OH2            14.2603211380        2.4234296100       36.1281048688  TIP3      1205            0.0000000000
     20964      1341  TIP3      H1             14.3796707304        2.2718279500       37.0852103396  TIP3      1205            0.0000000000
     20965      1341  TIP3      H2             15.0690659533        2.9634466866       35.9539604714  TIP3      1205            0.0000000000
     20966      1342  TIP3      OH2            16.2809416581        4.2043473521       35.8451986367  TIP3      1206            0.0000000000
     20967      1342  TIP3      H1             17.1174732235        3.7580778747       35.6312010796  TIP3      1206            0.0000000000
     20968      1342  TIP3      H2             16.5621210961        4.7604035763       36.5954111688  TIP3      1206            0.0000000000
     20969      1343  TIP3      OH2            21.4391794180      -13.7766330867       34.8253903170  TIP3      1207            0.0000000000
     20970      1343  TIP3      H1             20.7446352045      -13.2070133338       34.4484209766  TIP3      1207            0.0000000000
     20971      1343  TIP3      H2             21.3276844501      -14.5997228194       34.3277454780  TIP3      1207            0.0000000000
     20972      1344  TIP3      OH2             7.7256131455        4.4432035504       33.4676942080  TIP3      1208            0.0000000000
     20973      1344  TIP3      H1              7.0562702771        5.1306329627       33.2857824870  TIP3      1208            0.0000000000
     20974      1344  TIP3      H2              7.5320947456        4.1895406449       34.3814155706  TIP3      1208            0.0000000000
     20975      1345  TIP3      OH2            10.0753453275        3.9010918421       32.4894777453  TIP3      1209            0.0000000000
     20976      1345  TIP3      H1              9.2200937927        4.1916462257       32.8959182771  TIP3      1209            0.0000000000
     20977      1345  TIP3      H2             10.1012941925        4.4975967086       31.7194694209  TIP3      1209            0.0000000000
     20978      1346  TIP3      OH2            14.6593132855        3.5317962125       31.8019875202  TIP3      1210            0.0000000000
     20979      1346  TIP3      H1             13.9128496716        3.9667659837       31.3479643992  TIP3      1210            0.0000000000
     20980      1346  TIP3      H2             14.9469465523        4.2870766623       32.3674302012  TIP3      1210            0.0000000000
     20981      1347  TIP3      OH2            16.7833918960        2.2682702143       33.1204610522  TIP3      1211            0.0000000000
     20982      1347  TIP3      H1             16.0652675373        2.5643367636       32.5144655734  TIP3      1211            0.0000000000
     20983      1347  TIP3      H2             17.4411837325        2.9571185648       32.8793776856  TIP3      1211            0.0000000000
     20984      1348  TIP3      OH2            18.8432460381        4.1296310991       32.6513744677  TIP3      1212            0.0000000000
     20985      1348  TIP3      H1             18.8364211742        5.0955149121       32.5110828811  TIP3      1212            0.0000000000
     20986      1348  TIP3      H2             19.3701477030        3.8416543780       31.8774326403  TIP3      1212            0.0000000000
     20987      1349  TIP3      OH2             7.1795266127        2.8558956819       30.5957155647  TIP3      1213            0.0000000000
     20988      1349  TIP3      H1              6.8231964116        2.4719067819       31.4253413411  TIP3      1213            0.0000000000
     20989      1349  TIP3      H2              8.1106949604        2.5406189217       30.5854973316  TIP3      1213            0.0000000000
     20990      1350  TIP3      OH2             9.4540193970        1.8723948045       29.3244288557  TIP3      1214            0.0000000000
     20991      1350  TIP3      H1              9.2399096821        0.9349639757       29.5345910829  TIP3      1214            0.0000000000
     20992      1350  TIP3      H2             10.3829405375        1.8838783945       29.6514907552  TIP3      1214            0.0000000000
     20993      1351  TIP3      OH2            11.8096771183        1.6266287944       30.5695481059  TIP3      1215            0.0000000000
     20994      1351  TIP3      H1             12.0973556838        0.7362188204       30.3172336755  TIP3      1215            0.0000000000
     20995      1351  TIP3      H2             12.1531607984        1.6665646485       31.4806332248  TIP3      1215            0.0000000000
     20996      1352  TIP3      OH2            15.9009526517      -12.1175020120       29.2637622229  TIP3      1216            0.0000000000
     20997      1352  TIP3      H1             15.1951143633      -12.1430665071       29.9263726581  TIP3      1216            0.0000000000
     20998      1352  TIP3      H2             15.4091751601      -11.8332063914       28.4845334720  TIP3      1216            0.0000000000
     20999      1353  TIP3      OH2            19.8165453661      -13.9030544438       29.0683869673  TIP3      1217            0.0000000000
     21000      1353  TIP3      H1             20.5143164709      -13.5480849078       28.4725654862  TIP3      1217            0.0000000000
     21001      1353  TIP3      H2             19.0076876560      -13.6266835154       28.5904207867  TIP3      1217            0.0000000000
     21002      1354  TIP3      OH2            21.8524462259      -13.1278708924       27.3839073615  TIP3      1218            0.0000000000
     21003      1354  TIP3      H1             22.3943215842      -13.7721399079       26.8636986964  TIP3      1218            0.0000000000
     21004      1354  TIP3      H2             22.5671046003      -12.5065535037       27.6716365234  TIP3      1218            0.0000000000
     21005      1355  TIP3      OH2             7.2918167525      -13.8075075081       26.9899326147  TIP3      1219            0.0000000000
     21006      1355  TIP3      H1              6.3887768869      -14.0297010904       26.6777119420  TIP3      1219            0.0000000000
     21007      1355  TIP3      H2              7.7207778618      -14.6913020803       26.9033607120  TIP3      1219            0.0000000000
     21008      1356  TIP3      OH2             6.3175402345      -14.2743896966       22.3296557813  TIP3      1220            0.0000000000
     21009      1356  TIP3      H1              7.0008152760      -13.8323329272       21.8048005044  TIP3      1220            0.0000000000
     21010      1356  TIP3      H2              6.0618204420      -13.6003663910       23.0011815203  TIP3      1220            0.0000000000
     21011      1357  TIP3      OH2            11.9853512817      -13.9971904607       27.0047246213  TIP3      1221            0.0000000000
     21012      1357  TIP3      H1             12.8509686852      -14.3112496492       26.7056193914  TIP3      1221            0.0000000000
     21013      1357  TIP3      H2             12.1968776582      -13.6291617346       27.8855054916  TIP3      1221            0.0000000000
     21014      1358  TIP3      OH2            17.6278796533      -13.7219494064       27.5453706404  TIP3      1222            0.0000000000
     21015      1358  TIP3      H1             16.9279705986      -13.2131324020       27.1247512757  TIP3      1222            0.0000000000
     21016      1358  TIP3      H2             17.1092020201      -14.3660726631       28.0677795043  TIP3      1222            0.0000000000
     21017      1359  TIP3      OH2            18.4786946114      -13.6752871858       23.8026800895  TIP3      1223            0.0000000000
     21018      1359  TIP3      H1             17.7895001314      -13.0507427471       24.1202108867  TIP3      1223            0.0000000000
     21019      1359  TIP3      H2             18.1813351898      -14.5518511097       24.1352376502  TIP3      1223            0.0000000000
     21020      1360  TIP3      OH2             6.3864993040        2.3420539294       24.0940077167  TIP3      1224            0.0000000000
     21021      1360  TIP3      H1              5.5181290363        2.5553491113       23.7093987154  TIP3      1224            0.0000000000
     21022      1360  TIP3      H2              6.8239359254        3.2120707265       24.0390152069  TIP3      1224            0.0000000000
     21023      1361  TIP3      OH2            12.5895228402      -12.8667646117       24.3165034185  TIP3      1225            0.0000000000
     21024      1361  TIP3      H1             13.4557229176      -12.7035198412       24.7546928607  TIP3      1225            0.0000000000
     21025      1361  TIP3      H2             12.5975646378      -12.1916769528       23.6176110467  TIP3      1225            0.0000000000
     21026      1362  TIP3      OH2            14.9406998565        3.5622754963       21.8473898825  TIP3      1226            0.0000000000
     21027      1362  TIP3      H1             15.9143850683        3.6611781779       21.8825852127  TIP3      1226            0.0000000000
     21028      1362  TIP3      H2             14.8610731696        2.8697895209       21.1548423420  TIP3      1226            0.0000000000
     21029      1363  TIP3      OH2            21.8604329331        2.1826657901       24.7492593273  TIP3      1227            0.0000000000
     21030      1363  TIP3      H1             21.3593915182        1.3832914121       24.5092151829  TIP3      1227            0.0000000000
     21031      1363  TIP3      H2             21.4629374153        2.8757012262       24.1710158711  TIP3      1227            0.0000000000
     21032      1364  TIP3      OH2             7.1487808258      -12.9010203813       36.4841660840  TIP3      1228            0.0000000000
     21033      1364  TIP3      H1              6.7072637431      -13.7683590215       36.5101090317  TIP3      1228            0.0000000000
     21034      1364  TIP3      H2              7.9010492926      -13.0255176553       37.1053985884  TIP3      1228            0.0000000000
     21035      1365  TIP3      OH2             9.1819258387      -13.5657970513       38.2573150735  TIP3      1229            0.0000000000
     21036      1365  TIP3      H1             10.0060784049      -13.9154834058       37.8553074514  TIP3      1229            0.0000000000
     21037      1365  TIP3      H2              8.8363605493      -14.3931133070       38.6425345892  TIP3      1229            0.0000000000
     21038      1366  TIP3      OH2             8.0235517807        3.4602119325       21.2443796319  TIP3      1230            0.0000000000
     21039      1366  TIP3      H1              7.2214625671        3.1662570040       21.6998959015  TIP3      1230            0.0000000000
     21040      1366  TIP3      H2              7.6764753994        3.4321298743       20.3224089974  TIP3      1230            0.0000000000
     21041      1367  TIP3      OH2            17.7665570701      -14.4737958595       38.2803380677  TIP3      1231            0.0000000000
     21042      1367  TIP3      H1             17.9326232071      -15.0573713226       39.0458337498  TIP3      1231            0.0000000000
     21043      1367  TIP3      H2             18.6786541067      -14.4553755165       37.9113820507  TIP3      1231            0.0000000000
     21044      1368  TIP3      OH2            21.0615333034        1.7104280490       36.6143648102  TIP3      1232            0.0000000000
     21045      1368  TIP3      H1             20.3151452481        1.7308891540       35.9765710852  TIP3      1232            0.0000000000
     21046      1368  TIP3      H2             20.9787084308        2.5781162797       37.0307208970  TIP3      1232            0.0000000000
     21047      1369  TIP3      OH2            26.7389797509       -5.7599514020       31.7334649545  TIP3      1233            0.0000000000
     21048      1369  TIP3      H1             26.4772807613       -6.6464090699       32.0424011762  TIP3      1233            0.0000000000
     21049      1369  TIP3      H2             27.2814142661       -5.4777205023       32.4958806873  TIP3      1233            0.0000000000
     21050      1370  TIP3      OH2            28.1051545979       -1.0760887105       29.6801280811  TIP3      1234            0.0000000000
     21051      1370  TIP3      H1             27.9353997300       -2.0418625248       29.7196375532  TIP3      1234            0.0000000000
     21052      1370  TIP3      H2             29.0852437727       -1.0963935053       29.6405269130  TIP3      1234            0.0000000000
     21053      1371  TIP3      OH2            24.6739692231       -7.8213748455       25.4820407388  TIP3      1235            0.0000000000
     21054      1371  TIP3      H1             24.3948521760       -7.5269627845       24.6015998181  TIP3      1235            0.0000000000
     21055      1371  TIP3      H2             23.9034856146       -7.6186722110       26.0384866992  TIP3      1235            0.0000000000
     21056      1372  TIP3      OH2            24.6348369917       -5.7571816321       28.1664623892  TIP3      1236            0.0000000000
     21057      1372  TIP3      H1             25.0920645545       -6.6029207158       28.3662022064  TIP3      1236            0.0000000000
     21058      1372  TIP3      H2             25.3211320948       -5.2749369845       27.6759857076  TIP3      1236            0.0000000000
     21059      1373  TIP3      OH2           -33.4477257995       -2.2910280143       30.9516167633  TIP3      1237            0.0000000000
     21060      1373  TIP3      H1            -32.8177244879       -3.0085585747       31.1210632282  TIP3      1237            0.0000000000
     21061      1373  TIP3      H2            -32.8830975942       -1.4916490554       30.9082161816  TIP3      1237            0.0000000000
     21062      1374  TIP3      OH2            29.0985096816      -10.3199435473       27.9574032967  TIP3      1238            0.0000000000
     21063      1374  TIP3      H1             29.3220874186       -9.5870013839       27.3526339354  TIP3      1238            0.0000000000
     21064      1374  TIP3      H2             28.5522322544      -10.8735140330       27.3461123491  TIP3      1238            0.0000000000
     21065      1375  TIP3      OH2            25.9656616282       -7.8813966893       29.1805384357  TIP3      1239            0.0000000000
     21066      1375  TIP3      H1             26.5581626366       -8.4657622834       29.6934012752  TIP3      1239            0.0000000000
     21067      1375  TIP3      H2             26.2136349352       -8.1846720398       28.2792013896  TIP3      1239            0.0000000000
     21068      1376  TIP3      OH2            30.4415861090       -6.4871317393       28.1670235099  TIP3      1240            0.0000000000
     21069      1376  TIP3      H1             31.2821654500       -6.8684848796       28.4970601617  TIP3      1240            0.0000000000
     21070      1376  TIP3      H2             30.1657251236       -7.1635728612       27.5236331428  TIP3      1240            0.0000000000
     21071      1377  TIP3      OH2            27.8716151666      -11.5057877173       32.3620137449  TIP3      1241            0.0000000000
     21072      1377  TIP3      H1             27.4072203852      -11.0130069111       31.6622735124  TIP3      1241            0.0000000000
     21073      1377  TIP3      H2             27.2780955857      -11.3514152578       33.1327236341  TIP3      1241            0.0000000000
     21074      1378  TIP3      OH2            30.9678442869       -3.8831312677       32.4578566790  TIP3      1242            0.0000000000
     21075      1378  TIP3      H1             30.3387525367       -3.2475467768       32.8432875025  TIP3      1242            0.0000000000
     21076      1378  TIP3      H2             31.4509290819       -3.2853200796       31.8576694441  TIP3      1242            0.0000000000
     21077      1379  TIP3      OH2            27.6784001325       -9.6706158324       30.1728053961  TIP3      1243            0.0000000000
     21078      1379  TIP3      H1             28.4099864604       -9.3765440137       30.7558448039  TIP3      1243            0.0000000000
     21079      1379  TIP3      H2             28.2068810612      -10.0207769848       29.4127124277  TIP3      1243            0.0000000000
     21080      1380  TIP3      OH2            28.9769493493       -1.6921246891       32.9238042143  TIP3      1244            0.0000000000
     21081      1380  TIP3      H1             28.8450708700       -1.1429112802       32.1393981971  TIP3      1244            0.0000000000
     21082      1380  TIP3      H2             28.0552154953       -1.6758186617       33.2869428607  TIP3      1244            0.0000000000
     21083      1381  TIP3      OH2            24.9423489442       -2.0704153175       23.7505733449  TIP3      1245            0.0000000000
     21084      1381  TIP3      H1             24.0036799269       -2.2354640186       23.6215343037  TIP3      1245            0.0000000000
     21085      1381  TIP3      H2             24.9583110554       -1.5025280083       24.5531844148  TIP3      1245            0.0000000000
     21086      1382  TIP3      OH2            31.4520925781      -13.8452779965       29.8900477690  TIP3      1246            0.0000000000
     21087      1382  TIP3      H1             31.3625999755      -14.6278985717       30.4530701446  TIP3      1246            0.0000000000
     21088      1382  TIP3      H2             30.5898047878      -13.3905890972       30.0826742002  TIP3      1246            0.0000000000
     21089      1383  TIP3      OH2            29.6356465828       -4.4766798245       26.6386447287  TIP3      1247            0.0000000000
     21090      1383  TIP3      H1             29.2682717614       -5.0473630519       25.9438391973  TIP3      1247            0.0000000000
     21091      1383  TIP3      H2             29.9389574876       -5.1518857496       27.2891896566  TIP3      1247            0.0000000000
     21092      1384  TIP3      OH2            30.8181417021       -1.1249999030       29.6176930180  TIP3      1248            0.0000000000
     21093      1384  TIP3      H1             31.1205761167       -1.3807049936       28.7341000000  TIP3      1248            0.0000000000
     21094      1384  TIP3      H2             31.4744159427       -1.6042467737       30.1835995739  TIP3      1248            0.0000000000
     21095      1385  TIP3      OH2            29.8523566857       -5.9758486468       31.1206053898  TIP3      1249            0.0000000000
     21096      1385  TIP3      H1             29.8835324036       -5.7630238404       30.1724158975  TIP3      1249            0.0000000000
     21097      1385  TIP3      H2             30.1728306311       -5.1466453022       31.5361998215  TIP3      1249            0.0000000000
     21098      1386  TIP3      OH2            30.3161712101       -1.6441936320       35.2457794131  TIP3      1250            0.0000000000
     21099      1386  TIP3      H1             29.8870476260       -0.8905034725       35.7141800223  TIP3      1250            0.0000000000
     21100      1386  TIP3      H2             29.8292318992       -1.6324531764       34.3880541097  TIP3      1250            0.0000000000
     21101      1387  TIP3      OH2            27.6943488094       -5.4618966448       34.4493111665  TIP3      1251            0.0000000000
     21102      1387  TIP3      H1             27.9472065038       -4.6362988869       34.8919740809  TIP3      1251            0.0000000000
     21103      1387  TIP3      H2             26.9051444452       -5.6526808161       34.9742201833  TIP3      1251            0.0000000000
     21104      1388  TIP3      OH2            28.7222109572        0.2061918953       36.3759901170  TIP3      1252            0.0000000000
     21105      1388  TIP3      H1             28.7429203851        0.7064473999       35.5344715168  TIP3      1252            0.0000000000
     21106      1388  TIP3      H2             27.7471272485        0.0872927006       36.5095522027  TIP3      1252            0.0000000000
     21107      1389  TIP3      OH2            28.3017077368       -5.7634202372       24.0758907714  TIP3      1253            0.0000000000
     21108      1389  TIP3      H1             27.9914255870       -4.8264797047       23.9920825075  TIP3      1253            0.0000000000
     21109      1389  TIP3      H2             27.7826440091       -6.1920763539       23.3714766925  TIP3      1253            0.0000000000
     21110      1390  TIP3      OH2            24.5054216306       -3.1389214050       33.5633242490  TIP3      1254            0.0000000000
     21111      1390  TIP3      H1             24.4306091265       -3.4187395287       32.6366237096  TIP3      1254            0.0000000000
     21112      1390  TIP3      H2             24.4757203916       -4.0060351910       34.0212921053  TIP3      1254            0.0000000000
     21113      1391  TIP3      OH2            24.5597450329       -0.3420467291       30.3570378462  TIP3      1255            0.0000000000
     21114      1391  TIP3      H1             25.3003202628       -0.9605373807       30.4127388507  TIP3      1255            0.0000000000
     21115      1391  TIP3      H2             24.8758445568        0.4255374516       30.8520815818  TIP3      1255            0.0000000000
     21116      1392  TIP3      OH2            27.4995567086        2.8150289819       26.6675236716  TIP3      1256            0.0000000000
     21117      1392  TIP3      H1             27.8780048177        2.3267095533       27.4444980567  TIP3      1256            0.0000000000
     21118      1392  TIP3      H2             26.7117685126        2.2832680903       26.4935667062  TIP3      1256            0.0000000000
     21119      1393  TIP3      OH2            26.5941966636       -1.5469915124       34.0563968720  TIP3      1257            0.0000000000
     21120      1393  TIP3      H1             26.6856871433       -1.7598620503       35.0036255424  TIP3      1257            0.0000000000
     21121      1393  TIP3      H2             25.7984926150       -2.0815220518       33.8293623853  TIP3      1257            0.0000000000
     21122      1394  TIP3      OH2            29.1189532764      -12.8667568666       30.4234875507  TIP3      1258            0.0000000000
     21123      1394  TIP3      H1             28.2390312936      -13.0895970312       30.0440270601  TIP3      1258            0.0000000000
     21124      1394  TIP3      H2             28.8454185900      -12.4180275610       31.2468060567  TIP3      1258            0.0000000000
     21125      1395  TIP3      OH2            29.5602183354       -8.5507465216       31.9729129998  TIP3      1259            0.0000000000
     21126      1395  TIP3      H1             28.7927093119       -8.4204342094       32.5550250414  TIP3      1259            0.0000000000
     21127      1395  TIP3      H2             29.6147630733       -7.6612820920       31.5458109925  TIP3      1259            0.0000000000
     21128      1396  TIP3      OH2            29.4996008067       -8.3020643767       26.0783311342  TIP3      1260            0.0000000000
     21129      1396  TIP3      H1             28.5443927075       -8.1379708094       26.2192225630  TIP3      1260            0.0000000000
     21130      1396  TIP3      H2             29.5034883614       -8.8432564663       25.2686337858  TIP3      1260            0.0000000000
     21131      1397  TIP3      OH2            26.8613351299       -8.3653902413       33.2251768235  TIP3      1261            0.0000000000
     21132      1397  TIP3      H1             27.1803343207       -8.0365301426       34.0773199474  TIP3      1261            0.0000000000
     21133      1397  TIP3      H2             26.4994437546       -9.2367587732       33.4750382535  TIP3      1261            0.0000000000
     21134      1398  TIP3      OH2            23.7047013432      -11.2251162892       27.7347002333  TIP3      1262            0.0000000000
     21135      1398  TIP3      H1             24.5362623883      -11.3654575448       28.2120875093  TIP3      1262            0.0000000000
     21136      1398  TIP3      H2             23.9457895345      -11.1507600210       26.7836799973  TIP3      1262            0.0000000000
     21137      1399  TIP3      OH2            31.6927937460      -10.6245264691       28.1296576127  TIP3      1263            0.0000000000
     21138      1399  TIP3      H1             30.7215310726      -10.6948218941       28.2812441175  TIP3      1263            0.0000000000
     21139      1399  TIP3      H2             31.9680779494       -9.9646642502       28.7979543221  TIP3      1263            0.0000000000
     21140      1400  TIP3      OH2            26.7757602271       -8.7214222073       26.7746314180  TIP3      1264            0.0000000000
     21141      1400  TIP3      H1             26.0544684743       -8.5319595233       26.1248597081  TIP3      1264            0.0000000000
     21142      1400  TIP3      H2             26.9913191928       -9.6520620976       26.5559502039  TIP3      1264            0.0000000000
     21143      1401  TIP3      OH2            30.7339701881       -8.6598788940       23.6821911723  TIP3      1265            0.0000000000
     21144      1401  TIP3      H1             31.2336152717       -8.2626661914       24.4124612913  TIP3      1265            0.0000000000
     21145      1401  TIP3      H2             30.0807129164       -7.9683820863       23.4642238187  TIP3      1265            0.0000000000
     21146      1402  TIP3      OH2            26.6973331697       -3.1158676986       36.6023464839  TIP3      1266            0.0000000000
     21147      1402  TIP3      H1             27.3716484389       -2.9701800960       37.3017884338  TIP3      1266            0.0000000000
     21148      1402  TIP3      H2             25.8838548289       -3.1808204358       37.1532173647  TIP3      1266            0.0000000000
     21149      1403  TIP3      OH2           -33.5223996141       -8.0581303079       28.9898159620  TIP3      1267            0.0000000000
     21150      1403  TIP3      H1            -32.6237275176       -8.0514989525       28.6160272441  TIP3      1267            0.0000000000
     21151      1403  TIP3      H2            -33.3274550289       -7.8143733771       29.9180853962  TIP3      1267            0.0000000000
     21152      1404  TIP3      OH2            27.4331155726      -11.3008824225       26.2169044884  TIP3      1268            0.0000000000
     21153      1404  TIP3      H1             27.1314052805      -12.1206816530       26.6882475523  TIP3      1268            0.0000000000
     21154      1404  TIP3      H2             27.3275060658      -11.6039641392       25.3020799088  TIP3      1268            0.0000000000
     21155      1405  TIP3      OH2            31.9782872456       -9.7693562533       32.8666858926  TIP3      1269            0.0000000000
     21156      1405  TIP3      H1             31.2166068516       -9.1847390972       32.6568043849  TIP3      1269            0.0000000000
     21157      1405  TIP3      H2             32.6579738140       -9.3460879921       32.3194905474  TIP3      1269            0.0000000000
     21158      1406  TIP3      OH2            31.5826913471       -2.7226083278       23.5374431389  TIP3      1270            0.0000000000
     21159      1406  TIP3      H1             30.8778042531       -3.3550059239       23.6807962928  TIP3      1270            0.0000000000
     21160      1406  TIP3      H2             31.6299336133       -2.2640937408       24.3845110777  TIP3      1270            0.0000000000
     21161      1407  TIP3      OH2            28.1078109951       -3.8190684858       29.8154260005  TIP3      1271            0.0000000000
     21162      1407  TIP3      H1             28.4358688942       -4.1305845103       28.9539066682  TIP3      1271            0.0000000000
     21163      1407  TIP3      H2             27.8886111348       -4.6394058488       30.2984888736  TIP3      1271            0.0000000000
     21164      1408  TIP3      OH2            24.2398771590       -5.5185005916       34.7264559280  TIP3      1272            0.0000000000
     21165      1408  TIP3      H1             24.5575753376       -6.1897304443       35.3541269562  TIP3      1272            0.0000000000
     21166      1408  TIP3      H2             23.9738759503       -6.0238567640       33.9318153208  TIP3      1272            0.0000000000
     21167      1409  TIP3      OH2            31.5952692790       -5.6829769646       36.5598621626  TIP3      1273            0.0000000000
     21168      1409  TIP3      H1             30.9894849894       -6.0934570716       35.9069498670  TIP3      1273            0.0000000000
     21169      1409  TIP3      H2             32.2784777269       -6.3683017137       36.6695385201  TIP3      1273            0.0000000000
     21170      1410  TIP3      OH2            29.8382847869       -0.1295674316       26.2079113217  TIP3      1274            0.0000000000
     21171      1410  TIP3      H1             30.3356152390        0.6705626038       25.9571013731  TIP3      1274            0.0000000000
     21172      1410  TIP3      H2             28.9207234906        0.1743757592       26.2301874171  TIP3      1274            0.0000000000
     21173      1411  TIP3      OH2            31.4732460703       -2.2898845195       26.6714429475  TIP3      1275            0.0000000000
     21174      1411  TIP3      H1             30.8203449939       -1.5597366858       26.4977509289  TIP3      1275            0.0000000000
     21175      1411  TIP3      H2             30.8802160641       -3.0549847928       26.8454933832  TIP3      1275            0.0000000000
     21176      1412  TIP3      OH2            31.8489190009        1.6149446712       33.3328065315  TIP3      1276            0.0000000000
     21177      1412  TIP3      H1             32.0087915119        2.5710284745       33.2922837375  TIP3      1276            0.0000000000
     21178      1412  TIP3      H2             32.5579328859        1.2910026199       33.9045001996  TIP3      1276            0.0000000000
     21179      1413  TIP3      OH2            29.9788462284        2.8012485704       25.5024206659  TIP3      1277            0.0000000000
     21180      1413  TIP3      H1             29.1342686003        2.9495643552       25.9780612269  TIP3      1277            0.0000000000
     21181      1413  TIP3      H2             30.5516256389        3.4235292413       25.9927996172  TIP3      1277            0.0000000000
     21182      1414  TIP3      OH2            26.3133495504      -10.8066854688       34.4563437452  TIP3      1278            0.0000000000
     21183      1414  TIP3      H1             25.5965582845      -10.4398980956       35.0082897111  TIP3      1278            0.0000000000
     21184      1414  TIP3      H2             26.5090955680      -11.6312138401       34.9412485546  TIP3      1278            0.0000000000
     21185      1415  TIP3      OH2            26.0496359461        1.2503568297       32.5377500452  TIP3      1279            0.0000000000
     21186      1415  TIP3      H1             26.4247600432        0.3772778035       32.4000150265  TIP3      1279            0.0000000000
     21187      1415  TIP3      H2             26.5156660452        1.4701356112       33.3577726526  TIP3      1279            0.0000000000
     21188      1416  TIP3      OH2            27.4223212506       -3.2153644460       23.6699175845  TIP3      1280            0.0000000000
     21189      1416  TIP3      H1             26.4905444778       -2.9457870030       23.8190204876  TIP3      1280            0.0000000000
     21190      1416  TIP3      H2             27.7390566791       -2.4558608181       23.1804336957  TIP3      1280            0.0000000000
     21191      1417  TIP3      OH2            32.6423377300       -9.4111452662       26.0254833853  TIP3      1281            0.0000000000
     21192      1417  TIP3      H1             33.4602045809       -9.7418776055       26.4489080118  TIP3      1281            0.0000000000
     21193      1417  TIP3      H2             31.9756006552       -9.6396190744       26.7150989993  TIP3      1281            0.0000000000
     21194      1418  TIP3      OH2            30.0960684379        2.0698093146       22.8866327240  TIP3      1282            0.0000000000
     21195      1418  TIP3      H1             30.5418205365        2.9131888105       22.6868728447  TIP3      1282            0.0000000000
     21196      1418  TIP3      H2             29.8432099101        2.1979059068       23.8184187007  TIP3      1282            0.0000000000
     21197      1419  TIP3      OH2            29.1224049431      -11.5606912386       22.7899448018  TIP3      1283            0.0000000000
     21198      1419  TIP3      H1             28.9519035086      -10.6864735936       23.1484159485  TIP3      1283            0.0000000000
     21199      1419  TIP3      H2             29.9514118318      -11.8147168689       23.2362983542  TIP3      1283            0.0000000000
     21200      1420  TIP3      OH2            26.7198417111      -13.6620987053       29.6879221516  TIP3      1284            0.0000000000
     21201      1420  TIP3      H1             26.5072522677      -13.6592533888       28.7270330064  TIP3      1284            0.0000000000
     21202      1420  TIP3      H2             26.4129919421      -14.5601284486       29.9521788029  TIP3      1284            0.0000000000
     21203      1421  TIP3      OH2            25.3750539482       -0.3482084201       25.7552568575  TIP3      1285            0.0000000000
     21204      1421  TIP3      H1             25.0156138366       -0.0715765957       26.6085604223  TIP3      1285            0.0000000000
     21205      1421  TIP3      H2             25.3259523660        0.4677989263       25.2199768067  TIP3      1285            0.0000000000
     21206      1422  TIP3      OH2            24.6458430649        3.4074924487       36.8228575340  TIP3      1286            0.0000000000
     21207      1422  TIP3      H1             25.4139798934        3.1914095648       37.3905018435  TIP3      1286            0.0000000000
     21208      1422  TIP3      H2             24.1895819205        2.5468568921       36.7948703770  TIP3      1286            0.0000000000
     21209      1423  TIP3      OH2            28.7781683319        2.2909898611       38.1629140689  TIP3      1287            0.0000000000
     21210      1423  TIP3      H1             29.7197636263        2.3646077940       38.3754204320  TIP3      1287            0.0000000000
     21211      1423  TIP3      H2             28.7763289257        1.5618693798       37.5002030669  TIP3      1287            0.0000000000
     21212      1424  TIP3      OH2            24.4319985617       -2.9638546549       38.0588300464  TIP3      1288            0.0000000000
     21213      1424  TIP3      H1             23.9763368838       -3.8142436550       38.2172816090  TIP3      1288            0.0000000000
     21214      1424  TIP3      H2             24.0110606631       -2.6793753888       37.2105701784  TIP3      1288            0.0000000000
     21215      1425  TIP3      OH2            31.4107863146       -2.7507447759       37.4269435928  TIP3      1289            0.0000000000
     21216      1425  TIP3      H1             31.0958107924       -2.3971286864       36.5516366733  TIP3      1289            0.0000000000
     21217      1425  TIP3      H2             31.4404980074       -3.7055853679       37.2292848929  TIP3      1289            0.0000000000
     21218      1426  TIP3      OH2            26.1651971574       -6.1127080617       37.5611975850  TIP3      1290            0.0000000000
     21219      1426  TIP3      H1             26.4626343267       -6.9029954977       38.0453636177  TIP3      1290            0.0000000000
     21220      1426  TIP3      H2             26.2133241004       -5.4404184382       38.2676915310  TIP3      1290            0.0000000000
     21221      1427  TIP3      OH2            30.0437583476       -6.9270118940       34.5691760929  TIP3      1291            0.0000000000
     21222      1427  TIP3      H1             29.2557270018       -6.3797720607       34.3580639840  TIP3      1291            0.0000000000
     21223      1427  TIP3      H2             30.7121810341       -6.6172679531       33.9201100819  TIP3      1291            0.0000000000
     21224      1428  TIP3      OH2            30.0524080004       -9.4771158785       35.4122159595  TIP3      1292            0.0000000000
     21225      1428  TIP3      H1             30.3298053019      -10.1316292879       34.7440808024  TIP3      1292            0.0000000000
     21226      1428  TIP3      H2             30.0695125883       -8.6098530948       34.9409238250  TIP3      1292            0.0000000000
     21227      1429  TIP3      OH2            30.3372146934      -11.8923275799       33.3038159276  TIP3      1293            0.0000000000
     21228      1429  TIP3      H1             30.8337419939      -11.1309898478       32.9196488736  TIP3      1293            0.0000000000
     21229      1429  TIP3      H2             29.4025934575      -11.6963647001       33.0603354909  TIP3      1293            0.0000000000
     21230      1430  TIP3      OH2            32.4833318751       -6.2940033048       33.3805451200  TIP3      1294            0.0000000000
     21231      1430  TIP3      H1             32.9075721422       -6.8782075224       32.7106006733  TIP3      1294            0.0000000000
     21232      1430  TIP3      H2             32.3020501967       -5.4968332113       32.8539430934  TIP3      1294            0.0000000000
     21233      1431  TIP3      OH2            28.7267061297       -8.6473250318       37.7512928591  TIP3      1295            0.0000000000
     21234      1431  TIP3      H1             27.7976759865       -8.9067027154       37.5884395587  TIP3      1295            0.0000000000
     21235      1431  TIP3      H2             29.1629298682       -8.9056197208       36.9163375146  TIP3      1295            0.0000000000
     21236      1432  TIP3      OH2            30.9283521358      -14.4660100478       33.3217736974  TIP3      1296            0.0000000000
     21237      1432  TIP3      H1             30.7541694259      -13.5001935928       33.4443941124  TIP3      1296            0.0000000000
     21238      1432  TIP3      H2             30.0577496818      -14.7258350654       32.9569900536  TIP3      1296            0.0000000000
     21239      1433  TIP3      OH2            31.6810020063       -8.8404924807       37.5779573817  TIP3      1297            0.0000000000
     21240      1433  TIP3      H1             31.4538101388       -9.5689485257       38.1833864505  TIP3      1297            0.0000000000
     21241      1433  TIP3      H2             31.0347301262       -8.9950625194       36.8644183521  TIP3      1297            0.0000000000
     21242      1434  TIP3      OH2            26.5270313712      -10.3955202099       37.6903717121  TIP3      1298            0.0000000000
     21243      1434  TIP3      H1             26.9258414792      -11.2561511808       37.4940069010  TIP3      1298            0.0000000000
     21244      1434  TIP3      H2             26.4797673702      -10.4299758303       38.6765262190  TIP3      1298            0.0000000000
     21245      1435  TIP3      OH2            31.1718832911      -13.9493779070       36.3520321565  TIP3      1299            0.0000000000
     21246      1435  TIP3      H1             32.1193588601      -13.7342204735       36.3392799102  TIP3      1299            0.0000000000
     21247      1435  TIP3      H2             31.0018749889      -14.2025004116       35.4255674200  TIP3      1299            0.0000000000
     21248      1436  TIP3      OH2            31.5566663123      -13.3067425425       38.9541316877  TIP3      1300            0.0000000000
     21249      1436  TIP3      H1             31.2347463616      -13.7567326048       38.1462242082  TIP3      1300            0.0000000000
     21250      1436  TIP3      H2             31.1493353239      -12.4299235995       38.8351086774  TIP3      1300            0.0000000000
     21251      1437  TIP3      OH2            31.8776827778        4.2105704185       22.6006335315  TIP3      1301            0.0000000000
     21252      1437  TIP3      H1             32.1003379239        3.6045112803       21.8602208328  TIP3      1301            0.0000000000
     21253      1437  TIP3      H2             31.7209353098        5.0058490838       22.0573014018  TIP3      1301            0.0000000000
     21254      1438  TIP3      OH2            23.5897527977        3.8697984295       26.1962815338  TIP3      1302            0.0000000000
     21255      1438  TIP3      H1             23.0036743220        3.2854733928       25.6911964826  TIP3      1302            0.0000000000
     21256      1438  TIP3      H2             23.8198054849        3.2678094158       26.9392832168  TIP3      1302            0.0000000000
     21257      1439  TIP3      OH2            24.5801673414        2.1186819997       28.0303438379  TIP3      1303            0.0000000000
     21258      1439  TIP3      H1             23.9269977496        1.7957983478       28.6873148498  TIP3      1303            0.0000000000
     21259      1439  TIP3      H2             25.2715555173        2.4526382244       28.6496834032  TIP3      1303            0.0000000000
     21260      1440  TIP3      OH2            24.7029518233       -4.4615154058       30.4560529175  TIP3      1304            0.0000000000
     21261      1440  TIP3      H1             24.5547919234       -5.0169609892       29.6565465445  TIP3      1304            0.0000000000
     21262      1440  TIP3      H2             25.6079182679       -4.7704582770       30.6909268347  TIP3      1304            0.0000000000
     21263      1441  TIP3      OH2            24.2028104744       -9.5154013129       36.7468846014  TIP3      1305            0.0000000000
     21264      1441  TIP3      H1             25.0574246624       -9.8335898960       37.1133614432  TIP3      1305            0.0000000000
     21265      1441  TIP3      H2             23.6436233433      -10.3221904354       36.8296104351  TIP3      1305            0.0000000000
     21266      1442  TIP3      OH2            25.4158264615      -11.3769972950       30.0905293883  TIP3      1306            0.0000000000
     21267      1442  TIP3      H1             25.8974246961      -12.2334272104       29.9856580880  TIP3      1306            0.0000000000
     21268      1442  TIP3      H2             26.1413476433      -10.7366636485       30.0018842789  TIP3      1306            0.0000000000
     21269      1443  TIP3      OH2            23.9633926905       -8.4595052296       30.8447841175  TIP3      1307            0.0000000000
     21270      1443  TIP3      H1             24.1974488284       -9.1409528875       30.1931440811  TIP3      1307            0.0000000000
     21271      1443  TIP3      H2             24.6623112817       -7.8029662493       30.6691045601  TIP3      1307            0.0000000000
     21272      1444  TIP3      OH2            23.5755379540      -11.5171970441       25.0488326107  TIP3      1308            0.0000000000
     21273      1444  TIP3      H1             22.6579831762      -11.2837902139       24.8199992434  TIP3      1308            0.0000000000
     21274      1444  TIP3      H2             23.9151827579      -11.7542992045       24.1693484896  TIP3      1308            0.0000000000
     21275      1445  TIP3      OH2            24.0966753253      -13.5516387212       33.0033695211  TIP3      1309            0.0000000000
     21276      1445  TIP3      H1             23.3577234977      -13.9188189647       33.5105009557  TIP3      1309            0.0000000000
     21277      1445  TIP3      H2             23.7375469377      -12.7308452945       32.6328499549  TIP3      1309            0.0000000000
     21278      1446  TIP3      OH2            26.0552555257       -0.1661294734       36.7394368088  TIP3      1310            0.0000000000
     21279      1446  TIP3      H1             25.1803905489        0.2519546783       36.6272018886  TIP3      1310            0.0000000000
     21280      1446  TIP3      H2             25.7941348719       -1.0146953359       37.1094235820  TIP3      1310            0.0000000000
     21281      1447  TIP3      OH2            29.1413537755        1.4488131199       33.7913889923  TIP3      1311            0.0000000000
     21282      1447  TIP3      H1             29.0505354681        2.3017602163       33.3187486244  TIP3      1311            0.0000000000
     21283      1447  TIP3      H2             30.1065065004        1.3124840840       33.6772384970  TIP3      1311            0.0000000000
     21284      1448  TIP3      OH2            26.4416440260        4.6223451427       33.1536126340  TIP3      1312            0.0000000000
     21285      1448  TIP3      H1             25.6603022134        5.1930644241       32.9946337566  TIP3      1312            0.0000000000
     21286      1448  TIP3      H2             26.2999165884        4.3990876391       34.0837464254  TIP3      1312            0.0000000000
     21287      1449  TIP3      OH2            28.8192176666        3.7780739706       32.4407538506  TIP3      1313            0.0000000000
     21288      1449  TIP3      H1             27.8819855727        3.9203155429       32.7189535104  TIP3      1313            0.0000000000
     21289      1449  TIP3      H2             28.8672067776        4.4094409878       31.6932320440  TIP3      1313            0.0000000000
     21290      1450  TIP3      OH2            26.2573428468        2.7499105365       30.0658454247  TIP3      1314            0.0000000000
     21291      1450  TIP3      H1             25.9010678366        2.3523522705       30.8852516397  TIP3      1314            0.0000000000
     21292      1450  TIP3      H2             27.1373261363        2.3338832151       29.9971791848  TIP3      1314            0.0000000000
     21293      1451  TIP3      OH2            28.4846763347        1.5471854803       28.7742374802  TIP3      1315            0.0000000000
     21294      1451  TIP3      H1             28.3391836708        0.5978448228       28.9776786185  TIP3      1315            0.0000000000
     21295      1451  TIP3      H2             29.1769997834        1.7236531286       29.4575803601  TIP3      1315            0.0000000000
     21296      1452  TIP3      OH2            30.3300423381        1.6898328517       30.6567776339  TIP3      1316            0.0000000000
     21297      1452  TIP3      H1             30.8570496547        0.9351240671       30.3324573310  TIP3      1316            0.0000000000
     21298      1452  TIP3      H2             30.6260124567        1.7566093758       31.5750586833  TIP3      1316            0.0000000000
     21299      1453  TIP3      OH2            26.2199511644      -13.4728300263       26.9785540568  TIP3      1317            0.0000000000
     21300      1453  TIP3      H1             25.6481729850      -13.3821400644       26.1892986767  TIP3      1317            0.0000000000
     21301      1453  TIP3      H2             26.5796808879      -14.3748113500       26.8196141815  TIP3      1317            0.0000000000
     21302      1454  TIP3      OH2            25.6436223726      -13.3783185720       23.4383407938  TIP3      1318            0.0000000000
     21303      1454  TIP3      H1             25.5456732350      -12.6749160061       22.7653527213  TIP3      1318            0.0000000000
     21304      1454  TIP3      H2             24.9641957907      -14.0078955539       23.1467460838  TIP3      1318            0.0000000000
     21305      1455  TIP3      OH2            30.8346293082      -13.8130864911       27.3268368137  TIP3      1319            0.0000000000
     21306      1455  TIP3      H1             31.6149277402      -14.2921503059       26.9963906504  TIP3      1319            0.0000000000
     21307      1455  TIP3      H2             31.0547617958      -13.7299638784       28.2857644482  TIP3      1319            0.0000000000
     21308      1456  TIP3      OH2            24.6828433774        2.1186265295       23.8749687964  TIP3      1320            0.0000000000
     21309      1456  TIP3      H1             23.8102513656        2.4650651478       24.1162654840  TIP3      1320            0.0000000000
     21310      1456  TIP3      H2             25.0944373332        2.8540822883       23.3914066131  TIP3      1320            0.0000000000
     21311      1457  TIP3      OH2            26.2316670008      -11.3117721913       21.4393658769  TIP3      1321            0.0000000000
     21312      1457  TIP3      H1             27.0389613805      -11.6993394192       21.0734478558  TIP3      1321            0.0000000000
     21313      1457  TIP3      H2             26.4475944305      -10.3706292195       21.4245769553  TIP3      1321            0.0000000000
     21314      1458  TIP3      OH2            31.5139733817      -11.4276320378       24.2828088897  TIP3      1322            0.0000000000
     21315      1458  TIP3      H1             32.3929070864      -11.6111192460       23.9067996879  TIP3      1322            0.0000000000
     21316      1458  TIP3      H2             31.5333614836      -10.4525788957       24.3241675099  TIP3      1322            0.0000000000
     21317      1459  TIP3      OH2            25.9296084073      -13.3032532908       36.5059430609  TIP3      1323            0.0000000000
     21318      1459  TIP3      H1             25.4580473235      -14.1552642659       36.6655692639  TIP3      1323            0.0000000000
     21319      1459  TIP3      H2             26.6447874831      -13.3237521669       37.1774234473  TIP3      1323            0.0000000000
     21320      1460  TIP3      OH2            28.0311012066      -13.6482564335       38.2173948055  TIP3      1324            0.0000000000
     21321      1460  TIP3      H1             28.8457252379      -13.9609906412       37.7948347644  TIP3      1324            0.0000000000
     21322      1460  TIP3      H2             27.7568041350      -14.4635515966       38.6842525025  TIP3      1324            0.0000000000
     21323      1461  TIP3      OH2            26.8084012653        3.2646056628       21.1875904834  TIP3      1325            0.0000000000
     21324      1461  TIP3      H1             27.4260411622        3.3861959208       21.9226989837  TIP3      1325            0.0000000000
     21325      1461  TIP3      H2             27.3581593267        2.7882033196       20.5302585195  TIP3      1325            0.0000000000
     21326      1462  TIP3      OH2           -20.7540345646       14.2825878142       26.6379465397  TIP3      1326            0.0000000000
     21327      1462  TIP3      H1            -20.8545459758       15.1907438206       26.9794287893  TIP3      1326            0.0000000000
     21328      1462  TIP3      H2            -21.2861028845       14.3464577293       25.8100715338  TIP3      1326            0.0000000000
     21329      1463  TIP3      OH2           -21.9924659205       13.4121508548       30.2357835125  TIP3      1327            0.0000000000
     21330      1463  TIP3      H1            -21.8423561950       12.9004805995       31.0577280408  TIP3      1327            0.0000000000
     21331      1463  TIP3      H2            -22.6694795714       12.9175920997       29.7496207920  TIP3      1327            0.0000000000
     21332      1464  TIP3      OH2           -29.6320693524       13.4773653328       31.7702541451  TIP3      1328            0.0000000000
     21333      1464  TIP3      H1            -29.8427210559       12.7101293132       32.3297615544  TIP3      1328            0.0000000000
     21334      1464  TIP3      H2            -29.2366968880       14.0728010599       32.4319431973  TIP3      1328            0.0000000000
     21335      1465  TIP3      OH2           -18.5819203261       16.2197598887       28.7516440411  TIP3      1329            0.0000000000
     21336      1465  TIP3      H1            -18.7193863308       15.6021004099       29.4912008099  TIP3      1329            0.0000000000
     21337      1465  TIP3      H2            -18.4834178077       17.0677970164       29.2018948760  TIP3      1329            0.0000000000
     21338      1466  TIP3      OH2           -29.6437545527       17.6220407009       29.8551775116  TIP3      1330            0.0000000000
     21339      1466  TIP3      H1            -29.5080802718       16.6850597012       29.5765884778  TIP3      1330            0.0000000000
     21340      1466  TIP3      H2            -28.7546306406       17.7843130370       30.1777102445  TIP3      1330            0.0000000000
     21341      1467  TIP3      OH2           -32.7246089307       11.7078122840       25.9193247268  TIP3      1331            0.0000000000
     21342      1467  TIP3      H1            -32.4850729597       12.6347989230       26.0931711079  TIP3      1331            0.0000000000
     21343      1467  TIP3      H2            -33.6592817697       11.6931307546       26.1757697943  TIP3      1331            0.0000000000
     21344      1468  TIP3      OH2           -31.8309742717       13.4414707376       27.8346161439  TIP3      1332            0.0000000000
     21345      1468  TIP3      H1            -31.5270466902       12.5512771433       28.1037493368  TIP3      1332            0.0000000000
     21346      1468  TIP3      H2            -31.0124287005       13.8046170195       27.4885750160  TIP3      1332            0.0000000000
     21347      1469  TIP3      OH2           -21.7886868824       21.2595883069       28.1880659684  TIP3      1333            0.0000000000
     21348      1469  TIP3      H1            -20.9626552057       20.8626258889       27.8209252430  TIP3      1333            0.0000000000
     21349      1469  TIP3      H2            -21.8511036108       20.7266244105       28.9990008975  TIP3      1333            0.0000000000
     21350      1470  TIP3      OH2           -24.0005725266       16.1139677970       31.3204920328  TIP3      1334            0.0000000000
     21351      1470  TIP3      H1            -23.7548069862       15.4081431471       30.7029234834  TIP3      1334            0.0000000000
     21352      1470  TIP3      H2            -23.1319797850       16.5648191187       31.4022971169  TIP3      1334            0.0000000000
     21353      1471  TIP3      OH2           -15.0667350510        7.5977942196       30.4256048195  TIP3      1335            0.0000000000
     21354      1471  TIP3      H1            -14.9861503388        7.9587480278       31.3286331376  TIP3      1335            0.0000000000
     21355      1471  TIP3      H2            -14.1221362496        7.4860750901       30.2007624384  TIP3      1335            0.0000000000
     21356      1472  TIP3      OH2           -20.3564993735       10.3714167334       30.9948201134  TIP3      1336            0.0000000000
     21357      1472  TIP3      H1            -20.3098157696        9.4154988284       31.2082997081  TIP3      1336            0.0000000000
     21358      1472  TIP3      H2            -20.7088604325       10.3300141951       30.0860011160  TIP3      1336            0.0000000000
     21359      1473  TIP3      OH2           -28.1028121779        8.6499083696       28.0567567275  TIP3      1337            0.0000000000
     21360      1473  TIP3      H1            -27.6325436998        9.2924872571       27.4848514856  TIP3      1337            0.0000000000
     21361      1473  TIP3      H2            -27.9570352681        7.8394869247       27.5082011168  TIP3      1337            0.0000000000
     21362      1474  TIP3      OH2           -19.8533018628        8.2193606730       26.3435509750  TIP3      1338            0.0000000000
     21363      1474  TIP3      H1            -19.3716213073        8.1001672861       27.1886637710  TIP3      1338            0.0000000000
     21364      1474  TIP3      H2            -19.7179473944        9.1586149052       26.1448164428  TIP3      1338            0.0000000000
     21365      1475  TIP3      OH2           -30.9494487095       11.1156233677       28.7660072120  TIP3      1339            0.0000000000
     21366      1475  TIP3      H1            -30.4280029173       10.6307986884       29.4286041197  TIP3      1339            0.0000000000
     21367      1475  TIP3      H2            -30.5753320429       10.7595220084       27.9399650047  TIP3      1339            0.0000000000
     21368      1476  TIP3      OH2           -26.2577790534       12.3142826108       27.9942451530  TIP3      1340            0.0000000000
     21369      1476  TIP3      H1            -25.4241149880       11.9466471717       28.3599273461  TIP3      1340            0.0000000000
     21370      1476  TIP3      H2            -26.5167417824       11.5693640663       27.4189997420  TIP3      1340            0.0000000000
     21371      1477  TIP3      OH2           -15.0035248625        8.6673199764       33.0556626407  TIP3      1341            0.0000000000
     21372      1477  TIP3      H1            -15.4239780730        9.5242991179       32.8068776521  TIP3      1341            0.0000000000
     21373      1477  TIP3      H2            -15.0874490113        8.7017451209       34.0186086989  TIP3      1341            0.0000000000
     21374      1478  TIP3      OH2           -28.4430611449        7.6402043194       32.4820029066  TIP3      1342            0.0000000000
     21375      1478  TIP3      H1            -28.7917440645        8.2433010651       31.8068260242  TIP3      1342            0.0000000000
     21376      1478  TIP3      H2            -29.1726714296        7.6762425267       33.1391757312  TIP3      1342            0.0000000000
     21377      1479  TIP3      OH2           -21.6976068296       17.0934185079       25.9012467119  TIP3      1343            0.0000000000
     21378      1479  TIP3      H1            -22.2599927220       16.9579134726       25.1226277487  TIP3      1343            0.0000000000
     21379      1479  TIP3      H2            -21.8144495056       18.0591758773       26.0085497379  TIP3      1343            0.0000000000
     21380      1480  TIP3      OH2           -26.3850168197       15.1554970004       32.0522048613  TIP3      1344            0.0000000000
     21381      1480  TIP3      H1            -26.9377625053       15.9318567010       32.2892254243  TIP3      1344            0.0000000000
     21382      1480  TIP3      H2            -25.5555740890       15.6022414924       31.7667020384  TIP3      1344            0.0000000000
     21383      1481  TIP3      OH2           -17.6821229036        8.6019124346       28.9111435495  TIP3      1345            0.0000000000
     21384      1481  TIP3      H1            -16.9093204597        8.0290483230       28.7869130964  TIP3      1345            0.0000000000
     21385      1481  TIP3      H2            -17.2584039313        9.3376187708       29.4123241575  TIP3      1345            0.0000000000
     21386      1482  TIP3      OH2           -29.0049455525        9.7511029497       30.2717710103  TIP3      1346            0.0000000000
     21387      1482  TIP3      H1            -28.3402802542       10.4166919779       30.5571572809  TIP3      1346            0.0000000000
     21388      1482  TIP3      H2            -28.5784194703        9.4310440965       29.4316673363  TIP3      1346            0.0000000000
     21389      1483  TIP3      OH2           -27.6869077462       17.3755738499       32.9339295466  TIP3      1347            0.0000000000
     21390      1483  TIP3      H1            -27.8071202598       18.3200386515       32.7406980410  TIP3      1347            0.0000000000
     21391      1483  TIP3      H2            -28.4536665699       17.1706500714       33.5161686404  TIP3      1347            0.0000000000
     21392      1484  TIP3      OH2           -31.6313635704       17.1460292767       23.6550960727  TIP3      1348            0.0000000000
     21393      1484  TIP3      H1            -32.4468790467       16.5892061764       23.7597086966  TIP3      1348            0.0000000000
     21394      1484  TIP3      H2            -31.2882026864       17.1594616271       24.5632439151  TIP3      1348            0.0000000000
     21395      1485  TIP3      OH2           -18.0958016344       18.7803859715       31.2213155211  TIP3      1349            0.0000000000
     21396      1485  TIP3      H1            -19.0719652171       18.7299842250       31.2724016482  TIP3      1349            0.0000000000
     21397      1485  TIP3      H2            -18.0182338806       19.6017936321       30.7012092555  TIP3      1349            0.0000000000
     21398      1486  TIP3      OH2           -17.9470575140        7.4141112206       31.9642572415  TIP3      1350            0.0000000000
     21399      1486  TIP3      H1            -18.6629118152        7.7505622962       31.3937647556  TIP3      1350            0.0000000000
     21400      1486  TIP3      H2            -17.2221864140        7.3489300561       31.3217400899  TIP3      1350            0.0000000000
     21401      1487  TIP3      OH2           -25.0299118381        5.3001750596       29.6569354565  TIP3      1351            0.0000000000
     21402      1487  TIP3      H1            -25.1239587564        4.3434265377       29.5541085327  TIP3      1351            0.0000000000
     21403      1487  TIP3      H2            -25.9222390386        5.5958352505       29.9790907149  TIP3      1351            0.0000000000
     21404      1488  TIP3      OH2           -19.4361752212       20.0804845753       27.4460552892  TIP3      1352            0.0000000000
     21405      1488  TIP3      H1            -19.2310424960       19.2695849847       26.9304739790  TIP3      1352            0.0000000000
     21406      1488  TIP3      H2            -18.6597950540       20.6527708672       27.2141233702  TIP3      1352            0.0000000000
     21407      1489  TIP3      OH2           -18.4778160521       17.8536560644       26.0484288535  TIP3      1353            0.0000000000
     21408      1489  TIP3      H1            -18.5256481523       17.2499606056       25.2757157788  TIP3      1353            0.0000000000
     21409      1489  TIP3      H2            -18.5717663154       17.2211446973       26.7805651245  TIP3      1353            0.0000000000
     21410      1490  TIP3      OH2           -17.0422010091       16.6961456848       34.5314305080  TIP3      1354            0.0000000000
     21411      1490  TIP3      H1            -16.9394553077       15.9921613769       33.8492155428  TIP3      1354            0.0000000000
     21412      1490  TIP3      H2            -16.7880087119       17.4854021233       34.0019267258  TIP3      1354            0.0000000000
     21413      1491  TIP3      OH2           -22.1037823654       14.0326447276       24.2692423666  TIP3      1355            0.0000000000
     21414      1491  TIP3      H1            -22.7663551326       14.7590717221       24.2108600685  TIP3      1355            0.0000000000
     21415      1491  TIP3      H2            -21.6054707668       14.2122036384       23.4606052149  TIP3      1355            0.0000000000
     21416      1492  TIP3      OH2           -14.8236831062       13.1399915488       32.7127153710  TIP3      1356            0.0000000000
     21417      1492  TIP3      H1            -15.5313888616       13.8160866678       32.8058464416  TIP3      1356            0.0000000000
     21418      1492  TIP3      H2            -14.3101766205       13.5080798171       31.9623477385  TIP3      1356            0.0000000000
     21419      1493  TIP3      OH2           -18.4658929623       13.7586762004       25.3627973141  TIP3      1357            0.0000000000
     21420      1493  TIP3      H1            -19.2596521852       13.9601725506       25.9051007369  TIP3      1357            0.0000000000
     21421      1493  TIP3      H2            -17.9317390555       13.2631365624       26.0106970099  TIP3      1357            0.0000000000
     21422      1494  TIP3      OH2           -18.5208495817       12.5071303569       33.8875545124  TIP3      1358            0.0000000000
     21423      1494  TIP3      H1            -18.4312183219       13.4743985585       33.9436705702  TIP3      1358            0.0000000000
     21424      1494  TIP3      H2            -19.4604854971       12.4155241799       33.6308118688  TIP3      1358            0.0000000000
     21425      1495  TIP3      OH2           -27.4432515689       14.5108928636       26.9576349776  TIP3      1359            0.0000000000
     21426      1495  TIP3      H1            -27.5809328664       14.3230498920       26.0030828151  TIP3      1359            0.0000000000
     21427      1495  TIP3      H2            -26.9205432665       13.7268009298       27.2344302774  TIP3      1359            0.0000000000
     21428      1496  TIP3      OH2           -26.3669532916       18.0193257049       29.6261940216  TIP3      1360            0.0000000000
     21429      1496  TIP3      H1            -26.4389708705       18.0270499792       28.6412440076  TIP3      1360            0.0000000000
     21430      1496  TIP3      H2            -25.6262229543       17.4131133364       29.8046092732  TIP3      1360            0.0000000000
     21431      1497  TIP3      OH2           -27.0098557538       13.1181222615       30.4373166606  TIP3      1361            0.0000000000
     21432      1497  TIP3      H1            -26.7194566893       13.2348821658       29.5150985650  TIP3      1361            0.0000000000
     21433      1497  TIP3      H2            -26.9245107320       14.0067539820       30.8559761719  TIP3      1361            0.0000000000
     21434      1498  TIP3      OH2           -20.7270537276       18.7514262963       31.5388275728  TIP3      1362            0.0000000000
     21435      1498  TIP3      H1            -20.8302752086       19.2490392103       32.3688216592  TIP3      1362            0.0000000000
     21436      1498  TIP3      H2            -20.8896808578       17.8381954366       31.8548456877  TIP3      1362            0.0000000000
     21437      1499  TIP3      OH2           -26.0464904895       17.4620145689       35.2650852679  TIP3      1363            0.0000000000
     21438      1499  TIP3      H1            -26.7102645705       17.9581419403       35.7977783641  TIP3      1363            0.0000000000
     21439      1499  TIP3      H2            -26.5284522191       17.3358445174       34.4186833881  TIP3      1363            0.0000000000
     21440      1500  TIP3      OH2           -19.7486833358       12.7526435281       23.1613812244  TIP3      1364            0.0000000000
     21441      1500  TIP3      H1            -19.3250310584       13.1491818276       23.9617601555  TIP3      1364            0.0000000000
     21442      1500  TIP3      H2            -19.3305970628       13.2758949965       22.4446718226  TIP3      1364            0.0000000000
     21443      1501  TIP3      OH2           -28.9194383244       14.0043993240       34.3973605029  TIP3      1365            0.0000000000
     21444      1501  TIP3      H1            -28.9868891932       14.7802181764       34.9718495552  TIP3      1365            0.0000000000
     21445      1501  TIP3      H2            -29.7643986154       13.5480588680       34.5941092155  TIP3      1365            0.0000000000
     21446      1502  TIP3      OH2           -22.4762566140       19.8507096235       25.9045164865  TIP3      1366            0.0000000000
     21447      1502  TIP3      H1            -22.5611102307       20.1221058605       26.8311631083  TIP3      1366            0.0000000000
     21448      1502  TIP3      H2            -22.7514663251       20.6817811023       25.4784782039  TIP3      1366            0.0000000000
     21449      1503  TIP3      OH2           -27.7601994262       19.2832233082       36.4136880488  TIP3      1367            0.0000000000
     21450      1503  TIP3      H1            -27.8658094663       19.6724170615       35.5218362876  TIP3      1367            0.0000000000
     21451      1503  TIP3      H2            -28.6956924743       19.1889123609       36.6641009013  TIP3      1367            0.0000000000
     21452      1504  TIP3      OH2           -28.1462506743       13.7758831705       24.3270242735  TIP3      1368            0.0000000000
     21453      1504  TIP3      H1            -28.7403883945       14.3024216587       23.7446769991  TIP3      1368            0.0000000000
     21454      1504  TIP3      H2            -28.5125016448       12.8885545303       24.1868643307  TIP3      1368            0.0000000000
     21455      1505  TIP3      OH2           -31.8944810813       15.7277119692       34.3564286733  TIP3      1369            0.0000000000
     21456      1505  TIP3      H1            -32.6016873522       15.7380973157       33.6926059192  TIP3      1369            0.0000000000
     21457      1505  TIP3      H2            -31.6262998788       14.7857477887       34.3297589961  TIP3      1369            0.0000000000
     21458      1506  TIP3      OH2           -32.3039485076       18.6583750840       30.3605969017  TIP3      1370            0.0000000000
     21459      1506  TIP3      H1            -31.5350934780       18.1604133448       30.0223127359  TIP3      1370            0.0000000000
     21460      1506  TIP3      H2            -31.8343415064       19.1685028760       31.0498898719  TIP3      1370            0.0000000000
     21461      1507  TIP3      OH2           -14.3432500322       19.2071864865       36.1219067405  TIP3      1371            0.0000000000
     21462      1507  TIP3      H1            -14.4697625960       18.2570247774       35.9367565989  TIP3      1371            0.0000000000
     21463      1507  TIP3      H2            -15.1273416336       19.3446164061       36.7001143207  TIP3      1371            0.0000000000
     21464      1508  TIP3      OH2           -23.4964910306       18.6255808953       34.8576369417  TIP3      1372            0.0000000000
     21465      1508  TIP3      H1            -23.1990001334       19.1779827498       35.6018815607  TIP3      1372            0.0000000000
     21466      1508  TIP3      H2            -24.3810719053       18.3337719768       35.1523621876  TIP3      1372            0.0000000000
     21467      1509  TIP3      OH2           -22.9241170141       22.3292377769       24.6176451612  TIP3      1373            0.0000000000
     21468      1509  TIP3      H1            -22.9953471990       22.6900623208       23.7063724113  TIP3      1373            0.0000000000
     21469      1509  TIP3      H2            -22.8044807666       23.1439172034       25.1419190314  TIP3      1373            0.0000000000
     21470      1510  TIP3      OH2           -28.9991782943       21.5816979013       26.7206835852  TIP3      1374            0.0000000000
     21471      1510  TIP3      H1            -28.8637246975       21.3270058348       27.6573003743  TIP3      1374            0.0000000000
     21472      1510  TIP3      H2            -29.5829003456       20.8444996508       26.4240136684  TIP3      1374            0.0000000000
     21473      1511  TIP3      OH2           -20.3442364714       21.2461286368       21.9604316086  TIP3      1375            0.0000000000
     21474      1511  TIP3      H1            -19.8175495548       20.4365188594       21.9577432835  TIP3      1375            0.0000000000
     21475      1511  TIP3      H2            -20.4210152531       21.4610401088       22.9177909804  TIP3      1375            0.0000000000
     21476      1512  TIP3      OH2           -20.1332970542       21.6671257501       24.6265513652  TIP3      1376            0.0000000000
     21477      1512  TIP3      H1            -20.9963129981       21.7065666073       25.0739351292  TIP3      1376            0.0000000000
     21478      1512  TIP3      H2            -19.6882442780       20.9453165540       25.0956584169  TIP3      1376            0.0000000000
     21479      1513  TIP3      OH2           -17.3812813195       10.4783533760       37.0063796988  TIP3      1377            0.0000000000
     21480      1513  TIP3      H1            -17.8434376302       10.7872865723       36.2072839419  TIP3      1377            0.0000000000
     21481      1513  TIP3      H2            -17.4163798967        9.5073986126       36.9210749580  TIP3      1377            0.0000000000
     21482      1514  TIP3      OH2           -29.7452671990       17.2379004354       34.6923578182  TIP3      1378            0.0000000000
     21483      1514  TIP3      H1            -29.6223901349       16.8227074565       35.5739511577  TIP3      1378            0.0000000000
     21484      1514  TIP3      H2            -30.6246532149       16.8598341821       34.4428092745  TIP3      1378            0.0000000000
     21485      1515  TIP3      OH2           -27.3240259847        6.1675206258       30.6184246401  TIP3      1379            0.0000000000
     21486      1515  TIP3      H1            -28.2033140675        6.2181040532       30.1743725962  TIP3      1379            0.0000000000
     21487      1515  TIP3      H2            -27.5244540722        6.5966575970       31.4810443379  TIP3      1379            0.0000000000
     21488      1516  TIP3      OH2           -22.5645402068        5.5300004962       33.7725538819  TIP3      1380            0.0000000000
     21489      1516  TIP3      H1            -22.1190372365        5.0256369241       34.4865486691  TIP3      1380            0.0000000000
     21490      1516  TIP3      H2            -23.5242873450        5.4688732194       33.9961734690  TIP3      1380            0.0000000000
     21491      1517  TIP3      OH2           -20.0356411087        9.6600446260       35.1297242363  TIP3      1381            0.0000000000
     21492      1517  TIP3      H1            -20.7300559874        9.3041683663       35.7308618572  TIP3      1381            0.0000000000
     21493      1517  TIP3      H2            -20.5251576567       10.4160332926       34.7621009366  TIP3      1381            0.0000000000
     21494      1518  TIP3      OH2           -18.3702186886       14.0469942728       21.1766626125  TIP3      1382            0.0000000000
     21495      1518  TIP3      H1            -19.1103103015       14.7066188722       21.2445839028  TIP3      1382            0.0000000000
     21496      1518  TIP3      H2            -18.3309738518       13.9856164269       20.2141799420  TIP3      1382            0.0000000000
     21497      1519  TIP3      OH2           -26.7568801138       10.7505561397       31.5834695414  TIP3      1383            0.0000000000
     21498      1519  TIP3      H1            -27.3426368688       10.8903040935       32.3641712717  TIP3      1383            0.0000000000
     21499      1519  TIP3      H2            -26.7630417212       11.6595479580       31.2060929465  TIP3      1383            0.0000000000
     21500      1520  TIP3      OH2           -27.1552425824       10.4263241984       26.2624210402  TIP3      1384            0.0000000000
     21501      1520  TIP3      H1            -28.0937673572       10.5583115367       26.0339616700  TIP3      1384            0.0000000000
     21502      1520  TIP3      H2            -26.8047349907       10.0893285292       25.4039232699  TIP3      1384            0.0000000000
     21503      1521  TIP3      OH2           -21.5450953872       11.3181266420       24.6311243752  TIP3      1385            0.0000000000
     21504      1521  TIP3      H1            -21.8085668473       12.2518750547       24.7866765363  TIP3      1385            0.0000000000
     21505      1521  TIP3      H2            -20.9113820817       11.4856273257       23.9124415171  TIP3      1385            0.0000000000
     21506      1522  TIP3      OH2           -22.6845373873       12.0257601243       36.3581001832  TIP3      1386            0.0000000000
     21507      1522  TIP3      H1            -23.1067355538       11.2159572316       36.6822612948  TIP3      1386            0.0000000000
     21508      1522  TIP3      H2            -21.9045312632       12.0547174362       36.9418756108  TIP3      1386            0.0000000000
     21509      1523  TIP3      OH2           -21.3997026227       11.0705823381       28.3708152251  TIP3      1387            0.0000000000
     21510      1523  TIP3      H1            -21.0799103456       11.9248699769       28.0272205011  TIP3      1387            0.0000000000
     21511      1523  TIP3      H2            -21.2997486447       10.5252359406       27.5764224273  TIP3      1387            0.0000000000
     21512      1524  TIP3      OH2           -30.3440707985       10.7452502935       32.9839360390  TIP3      1388            0.0000000000
     21513      1524  TIP3      H1            -30.2417584655       11.0908015281       33.8907474875  TIP3      1388            0.0000000000
     21514      1524  TIP3      H2            -30.2517951078        9.7871577723       33.1291712013  TIP3      1388            0.0000000000
     21515      1525  TIP3      OH2           -31.6122310465        8.1780527875       27.2739403694  TIP3      1389            0.0000000000
     21516      1525  TIP3      H1            -31.4906245952        8.1087058270       28.2399971185  TIP3      1389            0.0000000000
     21517      1525  TIP3      H2            -31.2718535970        7.3170361654       26.9875241887  TIP3      1389            0.0000000000
     21518      1526  TIP3      OH2           -32.0570723334        9.6736991230       23.1699840148  TIP3      1390            0.0000000000
     21519      1526  TIP3      H1            -31.3613424934        9.9571610172       22.5570685884  TIP3      1390            0.0000000000
     21520      1526  TIP3      H2            -32.8468190555        9.6648069974       22.5863747292  TIP3      1390            0.0000000000
     21521      1527  TIP3      OH2           -21.0766509265       12.4330361096       32.6858572114  TIP3      1391            0.0000000000
     21522      1527  TIP3      H1            -20.7516967288       11.6267328966       32.2215228418  TIP3      1391            0.0000000000
     21523      1527  TIP3      H2            -21.8421750937       12.0427885977       33.1754666765  TIP3      1391            0.0000000000
     21524      1528  TIP3      OH2           -24.4345676169        8.9430050260       26.8051032655  TIP3      1392            0.0000000000
     21525      1528  TIP3      H1            -25.3336032708        8.5808559673       26.7159286572  TIP3      1392            0.0000000000
     21526      1528  TIP3      H2            -24.0606093485        8.2908531579       27.4400353052  TIP3      1392            0.0000000000
     21527      1529  TIP3      OH2           -30.1665100636       10.5386416763       26.0359931962  TIP3      1393            0.0000000000
     21528      1529  TIP3      H1            -30.9843255650       10.9607873538       25.7076674982  TIP3      1393            0.0000000000
     21529      1529  TIP3      H2            -30.4895218602        9.6379161443       26.2232447594  TIP3      1393            0.0000000000
     21530      1530  TIP3      OH2           -26.3343861922        9.8052145110       23.7056531062  TIP3      1394            0.0000000000
     21531      1530  TIP3      H1            -25.3881074177        9.5618412107       23.6860714354  TIP3      1394            0.0000000000
     21532      1530  TIP3      H2            -26.5427123192        9.8688626174       22.7399594368  TIP3      1394            0.0000000000
     21533      1531  TIP3      OH2           -20.6055385474        7.6043114629       30.8219012894  TIP3      1395            0.0000000000
     21534      1531  TIP3      H1            -21.3571640270        7.2229941983       31.3114026742  TIP3      1395            0.0000000000
     21535      1531  TIP3      H2            -20.4441582835        6.9685614879       30.1089130902  TIP3      1395            0.0000000000
     21536      1532  TIP3      OH2           -17.2337268577       23.4938792259       37.1812794694  TIP3      1396            0.0000000000
     21537      1532  TIP3      H1            -16.8700880851       23.6087485006       36.2747460068  TIP3      1396            0.0000000000
     21538      1532  TIP3      H2            -16.4006189262       23.5413715416       37.6952180961  TIP3      1396            0.0000000000
     21539      1533  TIP3      OH2           -29.5921773924       15.7664771795       37.0864096907  TIP3      1397            0.0000000000
     21540      1533  TIP3      H1            -28.8869368128       15.7104786683       37.7731481441  TIP3      1397            0.0000000000
     21541      1533  TIP3      H2            -30.3979610354       15.6321298856       37.6252725264  TIP3      1397            0.0000000000
     21542      1534  TIP3      OH2           -23.9541651320       11.1704020547       29.0402247362  TIP3      1398            0.0000000000
     21543      1534  TIP3      H1            -22.9803251890       11.0952528653       28.8973452288  TIP3      1398            0.0000000000
     21544      1534  TIP3      H2            -24.2312216998       10.2683306393       28.8351474479  TIP3      1398            0.0000000000
     21545      1535  TIP3      OH2           -27.7625703696        6.7716258348       26.1970504666  TIP3      1399            0.0000000000
     21546      1535  TIP3      H1            -28.5160968565        6.1431137463       26.2163777115  TIP3      1399            0.0000000000
     21547      1535  TIP3      H2            -27.2560967254        6.4546803502       25.4302556205  TIP3      1399            0.0000000000
     21548      1536  TIP3      OH2           -24.7965683359        8.8902828929       31.5602748710  TIP3      1400            0.0000000000
     21549      1536  TIP3      H1            -25.4610553620        9.5895982530       31.3697567491  TIP3      1400            0.0000000000
     21550      1536  TIP3      H2            -24.0487460133        9.4159170864       31.8665553970  TIP3      1400            0.0000000000
     21551      1537  TIP3      OH2           -23.8697811812       15.9811923157       23.9992153011  TIP3      1401            0.0000000000
     21552      1537  TIP3      H1            -24.5529153547       15.4039575953       23.6188948381  TIP3      1401            0.0000000000
     21553      1537  TIP3      H2            -24.3460774520       16.3290233619       24.7805027720  TIP3      1401            0.0000000000
     21554      1538  TIP3      OH2           -16.6898712477       14.9953921315       32.5507203178  TIP3      1402            0.0000000000
     21555      1538  TIP3      H1            -16.1695590389       15.5262631628       31.9048289505  TIP3      1402            0.0000000000
     21556      1538  TIP3      H2            -17.4549816475       14.7710575641       31.9872491119  TIP3      1402            0.0000000000
     21557      1539  TIP3      OH2           -20.9780273987        8.6297675773       21.9157060248  TIP3      1403            0.0000000000
     21558      1539  TIP3      H1            -21.7732717627        8.9554981848       22.3582998038  TIP3      1403            0.0000000000
     21559      1539  TIP3      H2            -20.2548051049        9.1810686853       22.2685046445  TIP3      1403            0.0000000000
     21560      1540  TIP3      OH2           -23.2852413096       15.8156530840       34.2794272439  TIP3      1404            0.0000000000
     21561      1540  TIP3      H1            -23.0847781514       15.6737784421       35.2101481293  TIP3      1404            0.0000000000
     21562      1540  TIP3      H2            -23.5595171201       16.7507392849       34.2707900184  TIP3      1404            0.0000000000
     21563      1541  TIP3      OH2           -19.0299520775       10.2069667136       23.3094896038  TIP3      1405            0.0000000000
     21564      1541  TIP3      H1            -18.3640399594       10.0646342151       24.0137830608  TIP3      1405            0.0000000000
     21565      1541  TIP3      H2            -19.1205795761       11.1847854407       23.3104222100  TIP3      1405            0.0000000000
     21566      1542  TIP3      OH2           -28.9588937858       15.0817025118       29.1488599435  TIP3      1406            0.0000000000
     21567      1542  TIP3      H1            -28.5728580614       15.0010086335       28.2465944144  TIP3      1406            0.0000000000
     21568      1542  TIP3      H2            -28.5871960605       14.3109900802       29.6158753662  TIP3      1406            0.0000000000
     21569      1543  TIP3      OH2           -31.4440431976       13.0081439918       34.4384748091  TIP3      1407            0.0000000000
     21570      1543  TIP3      H1            -31.6065705375       12.6847558998       35.3458714798  TIP3      1407            0.0000000000
     21571      1543  TIP3      H2            -32.3186231508       12.8079118433       34.0267802051  TIP3      1407            0.0000000000
     21572      1544  TIP3      OH2           -25.7459669720       13.2535175710       36.3000723015  TIP3      1408            0.0000000000
     21573      1544  TIP3      H1            -25.8844806960       13.2620284020       35.3317463184  TIP3      1408            0.0000000000
     21574      1544  TIP3      H2            -24.9838309230       12.6498963557       36.3558974554  TIP3      1408            0.0000000000
     21575      1545  TIP3      OH2           -20.1585519708       18.4325273751       35.1014911916  TIP3      1409            0.0000000000
     21576      1545  TIP3      H1            -20.9334878553       18.5914428432       34.5496522744  TIP3      1409            0.0000000000
     21577      1545  TIP3      H2            -20.4633716216       18.8160661237       35.9521815394  TIP3      1409            0.0000000000
     21578      1546  TIP3      OH2           -15.4071858092       10.6760199071       23.1489956830  TIP3      1410            0.0000000000
     21579      1546  TIP3      H1            -15.9581036470       10.4674247526       22.3453116156  TIP3      1410            0.0000000000
     21580      1546  TIP3      H2            -15.1969328268       11.6241258483       22.9644778643  TIP3      1410            0.0000000000
     21581      1547  TIP3      OH2           -14.5120688568       16.5290514250       35.8212209092  TIP3      1411            0.0000000000
     21582      1547  TIP3      H1            -15.4107315106       16.5109234220       35.4238137554  TIP3      1411            0.0000000000
     21583      1547  TIP3      H2            -13.9529954818       16.3591292192       35.0269553604  TIP3      1411            0.0000000000
     21584      1548  TIP3      OH2           -16.3177266315       19.2410615068       23.3663183483  TIP3      1412            0.0000000000
     21585      1548  TIP3      H1            -16.5879021573       18.4340970778       23.8361181394  TIP3      1412            0.0000000000
     21586      1548  TIP3      H2            -15.8784240623       18.9028430806       22.5840052824  TIP3      1412            0.0000000000
     21587      1549  TIP3      OH2           -18.9121206246       14.1788049119       30.7507137825  TIP3      1413            0.0000000000
     21588      1549  TIP3      H1            -19.8327591588       13.9900693708       30.5041324398  TIP3      1413            0.0000000000
     21589      1549  TIP3      H2            -18.4240013422       13.6106734744       30.1293869687  TIP3      1413            0.0000000000
     21590      1550  TIP3      OH2           -26.9857579174       18.4460144146       27.0721509492  TIP3      1414            0.0000000000
     21591      1550  TIP3      H1            -26.6158210080       19.3475706422       26.9194244667  TIP3      1414            0.0000000000
     21592      1550  TIP3      H2            -27.8891141134       18.5625784371       26.7399332363  TIP3      1414            0.0000000000
     21593      1551  TIP3      OH2           -25.3417713925       16.4555150494       26.2961620596  TIP3      1415            0.0000000000
     21594      1551  TIP3      H1            -25.9354907904       17.1972385668       26.5361884289  TIP3      1415            0.0000000000
     21595      1551  TIP3      H2            -25.8417861343       15.7089631223       26.6607640356  TIP3      1415            0.0000000000
     21596      1552  TIP3      OH2           -24.9963287306       20.3845130564       32.9558689650  TIP3      1416            0.0000000000
     21597      1552  TIP3      H1            -24.3297043250       21.0023868502       32.5854359651  TIP3      1416            0.0000000000
     21598      1552  TIP3      H2            -24.4571984845       19.9526977233       33.6477959002  TIP3      1416            0.0000000000
     21599      1553  TIP3      OH2           -26.2848994007       20.9292217463       26.3924661995  TIP3      1417            0.0000000000
     21600      1553  TIP3      H1            -27.2144752487       21.2539244571       26.3956012797  TIP3      1417            0.0000000000
     21601      1553  TIP3      H2            -25.8567090422       21.7707316363       26.6453814519  TIP3      1417            0.0000000000
     21602      1554  TIP3      OH2           -21.4153803713       16.2330827741       32.2733387887  TIP3      1418            0.0000000000
     21603      1554  TIP3      H1            -21.9807342990       15.9951875644       33.0513973990  TIP3      1418            0.0000000000
     21604      1554  TIP3      H2            -21.1785011710       15.3458327226       31.9466872806  TIP3      1418            0.0000000000
     21605      1555  TIP3      OH2           -18.2682420167       20.8394008447       34.6591793355  TIP3      1419            0.0000000000
     21606      1555  TIP3      H1            -19.0822239467       20.3160231279       34.5605471418  TIP3      1419            0.0000000000
     21607      1555  TIP3      H2            -18.3947897600       21.5025150830       33.9475209269  TIP3      1419            0.0000000000
     21608      1556  TIP3      OH2           -30.4509812279        8.2022678754       34.2516290364  TIP3      1420            0.0000000000
     21609      1556  TIP3      H1            -30.7385386005        8.8823898139       34.9131045894  TIP3      1420            0.0000000000
     21610      1556  TIP3      H2            -31.0398047428        7.4650064919       34.4908652097  TIP3      1420            0.0000000000
     21611      1557  TIP3      OH2           -17.8895462296       16.0702776043       24.0091936494  TIP3      1421            0.0000000000
     21612      1557  TIP3      H1            -18.1077985448       15.2242974006       24.4618025092  TIP3      1421            0.0000000000
     21613      1557  TIP3      H2            -16.9329334958       15.9376176778       23.8321167118  TIP3      1421            0.0000000000
     21614      1558  TIP3      OH2           -30.9290932702       19.5487378754       32.6357425374  TIP3      1422            0.0000000000
     21615      1558  TIP3      H1            -30.3511759074       18.8184038159       32.9007870384  TIP3      1422            0.0000000000
     21616      1558  TIP3      H2            -30.4942966734       20.2916497660       33.0714469136  TIP3      1422            0.0000000000
     21617      1559  TIP3      OH2           -29.6393231289       15.4435984630       22.6206120679  TIP3      1423            0.0000000000
     21618      1559  TIP3      H1            -30.4812175939       15.8906280017       22.8451750496  TIP3      1423            0.0000000000
     21619      1559  TIP3      H2            -29.1515989269       16.1892412277       22.2408873527  TIP3      1423            0.0000000000
     21620      1560  TIP3      OH2           -21.7599399579        8.1405433932       33.6363694444  TIP3      1424            0.0000000000
     21621      1560  TIP3      H1            -21.0526409551        8.3029957780       34.2803442713  TIP3      1424            0.0000000000
     21622      1560  TIP3      H2            -22.0212748235        7.2085762949       33.8009379395  TIP3      1424            0.0000000000
     21623      1561  TIP3      OH2           -20.9936031579        6.6628577156       24.4029089768  TIP3      1425            0.0000000000
     21624      1561  TIP3      H1            -20.8060850939        7.1350012362       23.5685750613  TIP3      1425            0.0000000000
     21625      1561  TIP3      H2            -20.5907331263        7.2568775194       25.0800194551  TIP3      1425            0.0000000000
     21626      1562  TIP3      OH2           -23.4154923418       20.1596316362       22.5841596257  TIP3      1426            0.0000000000
     21627      1562  TIP3      H1            -24.1326557915       20.2951976984       23.2304427239  TIP3      1426            0.0000000000
     21628      1562  TIP3      H2            -22.6626868509       20.5397439483       23.0498313571  TIP3      1426            0.0000000000
     21629      1563  TIP3      OH2           -23.5722272882        9.6550386613       24.0623841844  TIP3      1427            0.0000000000
     21630      1563  TIP3      H1            -22.8490397975       10.3201370020       24.1683568740  TIP3      1427            0.0000000000
     21631      1563  TIP3      H2            -23.7373259923        9.4223672181       24.9915196782  TIP3      1427            0.0000000000
     21632      1564  TIP3      OH2           -22.6636954937       10.7187064942       33.9060537187  TIP3      1428            0.0000000000
     21633      1564  TIP3      H1            -22.8128161514       10.8887166396       34.8540529866  TIP3      1428            0.0000000000
     21634      1564  TIP3      H2            -22.5217383728        9.7477995032       33.8356387976  TIP3      1428            0.0000000000
     21635      1565  TIP3      OH2           -23.2167869375        5.9154498014       25.8983239247  TIP3      1429            0.0000000000
     21636      1565  TIP3      H1            -23.3593100950        6.5247392420       26.6551264883  TIP3      1429            0.0000000000
     21637      1565  TIP3      H2            -22.4428119094        6.3210017737       25.4552032958  TIP3      1429            0.0000000000
     21638      1566  TIP3      OH2           -25.9861775199       20.6424082645       23.7940382538  TIP3      1430            0.0000000000
     21639      1566  TIP3      H1            -26.4158455300       21.4558477457       23.4899927841  TIP3      1430            0.0000000000
     21640      1566  TIP3      H2            -26.0681691975       20.7041673424       24.7713492820  TIP3      1430            0.0000000000
     21641      1567  TIP3      OH2           -17.3209555865        8.1611045928       34.8604527212  TIP3      1431            0.0000000000
     21642      1567  TIP3      H1            -18.1520269007        8.6193065975       35.0752388346  TIP3      1431            0.0000000000
     21643      1567  TIP3      H2            -17.4108702374        8.0886802124       33.8887211005  TIP3      1431            0.0000000000
     21644      1568  TIP3      OH2           -18.0831285144       12.1822623466       28.8969991390  TIP3      1432            0.0000000000
     21645      1568  TIP3      H1            -18.7831037533       11.6051995319       29.2315376974  TIP3      1432            0.0000000000
     21646      1568  TIP3      H2            -17.3128735925       11.8030093425       29.3872848092  TIP3      1432            0.0000000000
     21647      1569  TIP3      OH2           -17.3733312823       21.5016486446       30.9496307531  TIP3      1433            0.0000000000
     21648      1569  TIP3      H1            -17.2709510325       22.0935131445       30.1679178030  TIP3      1433            0.0000000000
     21649      1569  TIP3      H2            -16.4307297999       21.4785548499       31.2402452992  TIP3      1433            0.0000000000
     21650      1570  TIP3      OH2           -29.6147598028        5.5903932177       29.3846271529  TIP3      1434            0.0000000000
     21651      1570  TIP3      H1            -29.8405941800        5.5674121693       28.4301316517  TIP3      1434            0.0000000000
     21652      1570  TIP3      H2            -29.9047834792        4.6935137449       29.6757133941  TIP3      1434            0.0000000000
     21653      1571  TIP3      OH2           -30.8041643395       19.7882471023       25.9946701628  TIP3      1435            0.0000000000
     21654      1571  TIP3      H1            -31.4928096037       20.0930234668       26.6284092031  TIP3      1435            0.0000000000
     21655      1571  TIP3      H2            -31.2347881955       19.9921042631       25.1453015122  TIP3      1435            0.0000000000
     21656      1572  TIP3      OH2           -32.1761262837       21.5646473548       36.7326548688  TIP3      1436            0.0000000000
     21657      1572  TIP3      H1            -31.8975736015       21.7971508527       37.6233185279  TIP3      1436            0.0000000000
     21658      1572  TIP3      H2            -32.3151207215       20.6139190442       36.8388713837  TIP3      1436            0.0000000000
     21659      1573  TIP3      OH2           -26.9709081732       20.9805056675       38.4728400911  TIP3      1437            0.0000000000
     21660      1573  TIP3      H1            -26.0926906697       20.5824569364       38.6406629522  TIP3      1437            0.0000000000
     21661      1573  TIP3      H2            -27.1944134160       20.5651655649       37.6178877165  TIP3      1437            0.0000000000
     21662      1574  TIP3      OH2           -20.6772015928       19.6523095412       37.4696995960  TIP3      1438            0.0000000000
     21663      1574  TIP3      H1            -20.9867928420       18.7588355992       37.7720373763  TIP3      1438            0.0000000000
     21664      1574  TIP3      H2            -19.8035879445       19.7205035791       37.9253883221  TIP3      1438            0.0000000000
     21665      1575  TIP3      OH2           -32.1908393019       15.6055193154       38.0977934057  TIP3      1439            0.0000000000
     21666      1575  TIP3      H1            -32.1964616403       14.7702165849       37.6074350489  TIP3      1439            0.0000000000
     21667      1575  TIP3      H2            -33.0859955437       15.9342050148       37.8928095246  TIP3      1439            0.0000000000
     21668      1576  TIP3      OH2           -25.1344856794       15.7463744039       37.1054594754  TIP3      1440            0.0000000000
     21669      1576  TIP3      H1            -25.2280453351       16.3665892116       36.3506463864  TIP3      1440            0.0000000000
     21670      1576  TIP3      H2            -25.3809523113       14.8824768358       36.7109229911  TIP3      1440            0.0000000000
     21671      1577  TIP3      OH2           -19.4477421705       15.6173609731       35.1971298191  TIP3      1441            0.0000000000
     21672      1577  TIP3      H1            -18.5749337654       16.0428706717       35.0243160255  TIP3      1441            0.0000000000
     21673      1577  TIP3      H2            -19.9374333105       16.4304997821       35.3943490229  TIP3      1441            0.0000000000
     21674      1578  TIP3      OH2           -31.1193798009       12.7781505298       37.5439021557  TIP3      1442            0.0000000000
     21675      1578  TIP3      H1            -30.7343086772       11.9347591300       37.8464552919  TIP3      1442            0.0000000000
     21676      1578  TIP3      H2            -30.8423688890       13.3483247578       38.2835175377  TIP3      1442            0.0000000000
     21677      1579  TIP3      OH2           -25.7226128440       13.5550754510       22.9727663637  TIP3      1443            0.0000000000
     21678      1579  TIP3      H1            -26.5111781693       13.6825099761       23.5331729678  TIP3      1443            0.0000000000
     21679      1579  TIP3      H2            -25.9636477013       12.7254188673       22.5326616561  TIP3      1443            0.0000000000
     21680      1580  TIP3      OH2           -27.4031546880       11.7749590613       33.9054888250  TIP3      1444            0.0000000000
     21681      1580  TIP3      H1            -27.8741180857       12.6199717018       34.0599909750  TIP3      1444            0.0000000000
     21682      1580  TIP3      H2            -26.5620905981       12.1543143493       33.5633180058  TIP3      1444            0.0000000000
     21683      1581  TIP3      OH2           -21.4744275848       14.8230008498       38.1173654055  TIP3      1445            0.0000000000
     21684      1581  TIP3      H1            -20.9264243625       14.1701159049       37.6411040452  TIP3      1445            0.0000000000
     21685      1581  TIP3      H2            -21.8907125354       14.2873235116       38.8157635235  TIP3      1445            0.0000000000
     21686      1582  TIP3      OH2           -15.5349595856       14.8426524601       19.4717200585  TIP3      1446            0.0000000000
     21687      1582  TIP3      H1            -15.6494434223       13.9183536272       19.2321000900  TIP3      1446            0.0000000000
     21688      1582  TIP3      H2            -15.0550359779       14.7645511839       20.3088874139  TIP3      1446            0.0000000000
     21689      1583  TIP3      OH2           -26.1132768858       10.0495207390       35.4950870305  TIP3      1447            0.0000000000
     21690      1583  TIP3      H1            -26.1666056679        9.2732422188       34.8979576417  TIP3      1447            0.0000000000
     21691      1583  TIP3      H2            -26.6077937351       10.7021396368       34.9535703243  TIP3      1447            0.0000000000
     21692      1584  TIP3      OH2           -26.0593110100        7.8715583482       33.6453402088  TIP3      1448            0.0000000000
     21693      1584  TIP3      H1            -25.6906317999        8.1015188913       32.7603339519  TIP3      1448            0.0000000000
     21694      1584  TIP3      H2            -27.0140948710        7.8431600556       33.4231852292  TIP3      1448            0.0000000000
     21695      1585  TIP3      OH2           -25.0201591422       13.2064025758       33.5209380504  TIP3      1449            0.0000000000
     21696      1585  TIP3      H1            -24.0657817560       13.0930274753       33.4259418734  TIP3      1449            0.0000000000
     21697      1585  TIP3      H2            -25.1982288188       14.0136602075       32.9819427535  TIP3      1449            0.0000000000
     21698      1586  TIP3      OH2           -20.6537605796       11.1268154156       38.6550376943  TIP3      1450            0.0000000000
     21699      1586  TIP3      H1            -20.5302411172       10.1991578058       38.9523612154  TIP3      1450            0.0000000000
     21700      1586  TIP3      H2            -19.7300412680       11.4032288886       38.5720319074  TIP3      1450            0.0000000000
     21701      1587  TIP3      OH2           -18.7814048011       13.9410499344       37.1528037762  TIP3      1451            0.0000000000
     21702      1587  TIP3      H1            -19.1969831072       14.4845269822       36.4444011505  TIP3      1451            0.0000000000
     21703      1587  TIP3      H2            -17.9015739204       13.7843188397       36.7646497468  TIP3      1451            0.0000000000
     21704      1588  TIP3      OH2           -27.7280371834       10.1227199698       37.8976826593  TIP3      1452            0.0000000000
     21705      1588  TIP3      H1            -28.6693158183        9.9126802170       37.7457618010  TIP3      1452            0.0000000000
     21706      1588  TIP3      H2            -27.4322066635       10.5009865128       37.0503465882  TIP3      1452            0.0000000000
     21707      1589  TIP3      OH2           -25.2382608842        5.3050011709       33.5948961740  TIP3      1453            0.0000000000
     21708      1589  TIP3      H1            -25.5273044404        6.2484555510       33.5327158534  TIP3      1453            0.0000000000
     21709      1589  TIP3      H2            -25.8835583866        4.8480199581       33.0413381103  TIP3      1453            0.0000000000
     21710      1590  TIP3      OH2           -24.5207916483        9.6870004477       37.6297369704  TIP3      1454            0.0000000000
     21711      1590  TIP3      H1            -25.1724476811        9.3499876724       38.2817306917  TIP3      1454            0.0000000000
     21712      1590  TIP3      H2            -25.0531383774        9.6013999819       36.8066323712  TIP3      1454            0.0000000000
     21713      1591  TIP3      OH2           -22.0704759498        8.9460068329       36.6662896543  TIP3      1455            0.0000000000
     21714      1591  TIP3      H1            -22.9859286897        8.9316411525       37.0124565188  TIP3      1455            0.0000000000
     21715      1591  TIP3      H2            -21.6632818845        8.2277579089       37.2061647256  TIP3      1455            0.0000000000
     21716      1592  TIP3      OH2           -20.6101599995        7.0751075474       38.0497607192  TIP3      1456            0.0000000000
     21717      1592  TIP3      H1            -20.4012191844        6.1199726510       38.1388379757  TIP3      1456            0.0000000000
     21718      1592  TIP3      H2            -20.2501084391        7.4733767493       38.8662320113  TIP3      1456            0.0000000000
     21719      1593  TIP3      OH2           -30.3578757443        8.3074671533       37.8102145349  TIP3      1457            0.0000000000
     21720      1593  TIP3      H1            -30.2120725310        7.4777259535       37.3327350250  TIP3      1457            0.0000000000
     21721      1593  TIP3      H2            -30.3815298510        7.9921725099       38.7480247514  TIP3      1457            0.0000000000
     21722      1594  TIP3      OH2           -25.6742701558        4.4230079508       36.2564242882  TIP3      1458            0.0000000000
     21723      1594  TIP3      H1            -25.1077558641        3.6205075873       36.2398280143  TIP3      1458            0.0000000000
     21724      1594  TIP3      H2            -25.5332387783        4.7396276953       35.3354870504  TIP3      1458            0.0000000000
     21725      1595  TIP3      OH2           -25.2212496016        5.7193368186       39.1846876242  TIP3      1459            0.0000000000
     21726      1595  TIP3      H1            -25.3550330363        5.2252007581       38.3578473426  TIP3      1459            0.0000000000
     21727      1595  TIP3      H2            -25.3316589439        6.6425171663       38.8678901386  TIP3      1459            0.0000000000
     21728      1596  TIP3      OH2           -25.7612263172       22.9997156535       22.0210960245  TIP3      1460            0.0000000000
     21729      1596  TIP3      H1            -24.8151483849       22.9392126902       22.2487788918  TIP3      1460            0.0000000000
     21730      1596  TIP3      H2            -25.7969831659       23.8608055584       21.6082546356  TIP3      1460            0.0000000000
     21731      1597  TIP3      OH2           -32.5100689982       22.8614785851       25.7136975439  TIP3      1461            0.0000000000
     21732      1597  TIP3      H1            -33.4663861507       22.8613181981       25.5823296045  TIP3      1461            0.0000000000
     21733      1597  TIP3      H2            -32.4660283726       22.4397089827       26.5898394312  TIP3      1461            0.0000000000
     21734      1598  TIP3      OH2           -32.0390651680       21.1838205559       28.0736561784  TIP3      1462            0.0000000000
     21735      1598  TIP3      H1            -32.7702133319       20.7069483781       28.4881657227  TIP3      1462            0.0000000000
     21736      1598  TIP3      H2            -31.5217178255       21.4940605170       28.8455798589  TIP3      1462            0.0000000000
     21737      1599  TIP3      OH2           -14.8389010219       22.2281302016       31.3902118462  TIP3      1463            0.0000000000
     21738      1599  TIP3      H1            -14.3490362961       22.3157908768       32.2243543790  TIP3      1463            0.0000000000
     21739      1599  TIP3      H2            -14.1877845992       22.5412311748       30.7607171558  TIP3      1463            0.0000000000
     21740      1600  TIP3      OH2           -14.9928025828       21.2630442781       34.0445900665  TIP3      1464            0.0000000000
     21741      1600  TIP3      H1            -15.2541957209       20.4889838584       33.4973879518  TIP3      1464            0.0000000000
     21742      1600  TIP3      H2            -14.7497985889       20.7895939623       34.8681017017  TIP3      1464            0.0000000000
     21743      1601  TIP3      OH2           -16.3141791546       17.1476744800       39.0181087193  TIP3      1465            0.0000000000
     21744      1601  TIP3      H1            -17.1574231536       17.4046139864       39.4424869120  TIP3      1465            0.0000000000
     21745      1601  TIP3      H2            -15.6671338792       17.8286521085       39.3548381986  TIP3      1465            0.0000000000
     21746      1602  TIP3      OH2           -15.2911597218       15.3989511337       23.8799950772  TIP3      1466            0.0000000000
     21747      1602  TIP3      H1            -14.3498577429       15.7036682637       23.8199645844  TIP3      1466            0.0000000000
     21748      1602  TIP3      H2            -15.2203976988       14.8301620951       24.6748524437  TIP3      1466            0.0000000000
     21749      1603  TIP3      OH2           -14.4203778037       13.3391616648       25.5310086363  TIP3      1467            0.0000000000
     21750      1603  TIP3      H1            -15.2806776448       12.9436866211       25.7976512372  TIP3      1467            0.0000000000
     21751      1603  TIP3      H2            -14.0090509598       13.4480024747       26.4143784497  TIP3      1467            0.0000000000
     21752      1604  TIP3      OH2           -15.1122116266       16.2737369390       30.7560254165  TIP3      1468            0.0000000000
     21753      1604  TIP3      H1            -14.4006112152       15.6373605479       30.5388027796  TIP3      1468            0.0000000000
     21754      1604  TIP3      H2            -14.7378735714       17.1199242304       30.4391636904  TIP3      1468            0.0000000000
     21755      1605  TIP3      OH2           -16.4138727366       19.0156944273       33.2740355986  TIP3      1469            0.0000000000
     21756      1605  TIP3      H1            -17.0544702657       19.5335578072       33.8014107903  TIP3      1469            0.0000000000
     21757      1605  TIP3      H2            -16.9274959578       18.9053179548       32.4333054667  TIP3      1469            0.0000000000
     21758      1606  TIP3      OH2           -15.3698601551       13.3284637164       22.1919094228  TIP3      1470            0.0000000000
     21759      1606  TIP3      H1            -16.2078877297       13.4447806264       21.7277066941  TIP3      1470            0.0000000000
     21760      1606  TIP3      H2            -15.3831914145       14.0358826557       22.8728810683  TIP3      1470            0.0000000000
     21761      1607  TIP3      OH2           -16.8679284073       10.2674048956       20.8297630222  TIP3      1471            0.0000000000
     21762      1607  TIP3      H1            -17.7660812617       10.5684588040       20.6489497469  TIP3      1471            0.0000000000
     21763      1607  TIP3      H2            -16.5917310892        9.9584155624       19.9374049129  TIP3      1471            0.0000000000
     21764      1608  TIP3      OH2           -16.5319832604       12.0854754500       26.7010144303  TIP3      1472            0.0000000000
     21765      1608  TIP3      H1            -16.6895237729       11.1889846776       26.3402379117  TIP3      1472            0.0000000000
     21766      1608  TIP3      H2            -17.0423281696       12.0470803651       27.5378385679  TIP3      1472            0.0000000000
     21767      1609  TIP3      OH2           -32.0701739408       13.7883702905       30.7081343858  TIP3      1473            0.0000000000
     21768      1609  TIP3      H1            -32.1389195465       13.8823106903       29.7370756935  TIP3      1473            0.0000000000
     21769      1609  TIP3      H2            -31.0994438216       13.6935125498       30.8186773129  TIP3      1473            0.0000000000
     21770      1610  TIP3      OH2           -15.8714427003       13.8201435531       36.2296545616  TIP3      1474            0.0000000000
     21771      1610  TIP3      H1            -15.4771147413       12.9465850717       36.4873850613  TIP3      1474            0.0000000000
     21772      1610  TIP3      H2            -15.0928309389       14.3494519963       35.9901562956  TIP3      1474            0.0000000000
     21773      1611  TIP3      OH2           -14.8546150376       11.5447498827       37.1964779614  TIP3      1475            0.0000000000
     21774      1611  TIP3      H1            -15.7086934052       11.0706530184       37.0943987677  TIP3      1475            0.0000000000
     21775      1611  TIP3      H2            -14.2234934215       10.7783415014       37.2088735993  TIP3      1475            0.0000000000
     21776      1612  TIP3      OH2           -17.0231341667        9.8080508911       25.2033867883  TIP3      1476            0.0000000000
     21777      1612  TIP3      H1            -16.9613488197        8.8353392361       25.2698676536  TIP3      1476            0.0000000000
     21778      1612  TIP3      H2            -16.3596887176       10.0128422068       24.5069072659  TIP3      1476            0.0000000000
     21779      1613  TIP3      OH2           -16.2172579963       10.5626715960       30.0511501162  TIP3      1477            0.0000000000
     21780      1613  TIP3      H1            -15.2395003778       10.5549673453       30.2071881164  TIP3      1477            0.0000000000
     21781      1613  TIP3      H2            -16.4870632327       10.5524561039       30.9986009158  TIP3      1477            0.0000000000
     21782      1614  TIP3      OH2           -16.5607383692       11.0157768100       32.6609185704  TIP3      1478            0.0000000000
     21783      1614  TIP3      H1            -17.3758819723       11.4058618831       33.0579070831  TIP3      1478            0.0000000000
     21784      1614  TIP3      H2            -15.9109574346       11.7325046141       32.8308479116  TIP3      1478            0.0000000000
     21785      1615  TIP3      OH2           -31.4565050378       10.0076135603       36.1161335943  TIP3      1479            0.0000000000
     21786      1615  TIP3      H1            -31.0519850390        9.5134298781       36.8720177882  TIP3      1479            0.0000000000
     21787      1615  TIP3      H2            -32.3725095586       10.0802374125       36.4371392158  TIP3      1479            0.0000000000
     21788      1616  TIP3      OH2           -14.2632686148        5.4499635751       38.0658539117  TIP3      1480            0.0000000000
     21789      1616  TIP3      H1            -13.9767054464        4.6089566962       37.6565857278  TIP3      1480            0.0000000000
     21790      1616  TIP3      H2            -14.3587613457        6.0245395879       37.2798630122  TIP3      1480            0.0000000000
     21791      1617  TIP3      OH2           -16.3071235898        7.0388752668       24.7832829174  TIP3      1481            0.0000000000
     21792      1617  TIP3      H1            -16.2531723576        6.6997990116       25.7079074060  TIP3      1481            0.0000000000
     21793      1617  TIP3      H2            -16.6145566806        6.2369643981       24.3178397685  TIP3      1481            0.0000000000
     21794      1618  TIP3      OH2           -30.9181492352        7.9213447832       30.2069521241  TIP3      1482            0.0000000000
     21795      1618  TIP3      H1            -30.4355618707        7.0703585102       30.1984455062  TIP3      1482            0.0000000000
     21796      1618  TIP3      H2            -30.1776560342        8.5734016474       30.2580831088  TIP3      1482            0.0000000000
     21797      1619  TIP3      OH2           -32.6773652183       11.0414098707       31.1606604040  TIP3      1483            0.0000000000
     21798      1619  TIP3      H1            -31.8258974136       10.5634107822       31.1924729979  TIP3      1483            0.0000000000
     21799      1619  TIP3      H2            -32.3281360700       11.9554823819       31.1423470435  TIP3      1483            0.0000000000
     21800      1620  TIP3      OH2           -15.1593494954        7.3781292442       36.4206928754  TIP3      1484            0.0000000000
     21801      1620  TIP3      H1            -15.6936274825        7.5806931539       37.2202966281  TIP3      1484            0.0000000000
     21802      1620  TIP3      H2            -15.8805349160        7.2241326812       35.7769444481  TIP3      1484            0.0000000000
     21803      1621  TIP3      OH2           -32.5135731226        7.2351201281       24.3635062616  TIP3      1485            0.0000000000
     21804      1621  TIP3      H1            -32.7813650578        7.3079430514       25.2872316805  TIP3      1485            0.0000000000
     21805      1621  TIP3      H2            -32.3271414613        8.1553953627       24.0743137130  TIP3      1485            0.0000000000
     21806      1622  TIP3      OH2           -17.5290163161       21.7690319680       26.6648443164  TIP3      1486            0.0000000000
     21807      1622  TIP3      H1            -16.8040452599       21.8102501516       26.0124211555  TIP3      1486            0.0000000000
     21808      1622  TIP3      H2            -17.2064211710       22.2937175431       27.4270010681  TIP3      1486            0.0000000000
     21809      1623  TIP3      OH2           -32.7044486576        5.6290315736       32.9421958823  TIP3      1487            0.0000000000
     21810      1623  TIP3      H1            -33.4765746719        5.0426103716       33.0831188470  TIP3      1487            0.0000000000
     21811      1623  TIP3      H2            -33.0265172530        6.2246509830       32.2468163834  TIP3      1487            0.0000000000
     21812      1624  TIP3      OH2           -30.4846011553       18.4508575754       37.3765515463  TIP3      1488            0.0000000000
     21813      1624  TIP3      H1            -31.0219091351       17.8441884256       36.8483894046  TIP3      1488            0.0000000000
     21814      1624  TIP3      H2            -29.8573425232       17.8557077600       37.8127022208  TIP3      1488            0.0000000000
     21815      1625  TIP3      OH2           -27.5792566972       20.2738515294       33.6710547557  TIP3      1489            0.0000000000
     21816      1625  TIP3      H1            -27.6595666688       21.2177005112       33.4265253236  TIP3      1489            0.0000000000
     21817      1625  TIP3      H2            -26.6232595079       20.1493509053       33.4748485989  TIP3      1489            0.0000000000
     21818      1626  TIP3      OH2           -23.4824356462       21.4332142577       36.1409710399  TIP3      1490            0.0000000000
     21819      1626  TIP3      H1            -23.4179076954       21.1145824355       37.0653093336  TIP3      1490            0.0000000000
     21820      1626  TIP3      H2            -22.5957326341       21.8246522511       36.0116276450  TIP3      1490            0.0000000000
     21821      1627  TIP3      OH2           -21.1321746767       22.9502861968       35.8059311686  TIP3      1491            0.0000000000
     21822      1627  TIP3      H1            -20.4319596858       22.3318467425       35.5561365032  TIP3      1491            0.0000000000
     21823      1627  TIP3      H2            -20.7845714370       23.3043261871       36.6464865305  TIP3      1491            0.0000000000
     21824      1628  TIP3      OH2           -16.2115596668        5.0537617060       34.7258201994  TIP3      1492            0.0000000000
     21825      1628  TIP3      H1            -16.9303756791        5.5157841939       34.2689714455  TIP3      1492            0.0000000000
     21826      1628  TIP3      H2            -16.2029462693        4.1622016056       34.3148848779  TIP3      1492            0.0000000000
     21827      1629  TIP3      OH2           -30.2517732561       23.1839260583       33.6970534965  TIP3      1493            0.0000000000
     21828      1629  TIP3      H1            -31.0852088413       23.5818051616       33.3475067790  TIP3      1493            0.0000000000
     21829      1629  TIP3      H2            -30.3195220550       23.3992633222       34.6389788349  TIP3      1493            0.0000000000
     21830      1630  TIP3      OH2           -27.8550093332       23.1340185270       32.4019285120  TIP3      1494            0.0000000000
     21831      1630  TIP3      H1            -28.7688057986       23.2169308281       32.7602711323  TIP3      1494            0.0000000000
     21832      1630  TIP3      H2            -27.7523699051       23.9228628762       31.8311123027  TIP3      1494            0.0000000000
     21833      1631  TIP3      OH2           -23.2516923598       22.1321551420       31.5974014561  TIP3      1495            0.0000000000
     21834      1631  TIP3      H1            -23.9439670061       22.6941922798       31.1950276328  TIP3      1495            0.0000000000
     21835      1631  TIP3      H2            -22.8634583422       22.7760277034       32.2320674665  TIP3      1495            0.0000000000
     21836      1632  TIP3      OH2           -20.9340908039       21.0457697554       33.1408511412  TIP3      1496            0.0000000000
     21837      1632  TIP3      H1            -21.5308512930       21.1490597387       32.3746256828  TIP3      1496            0.0000000000
     21838      1632  TIP3      H2            -20.2702640370       21.7323675403       32.9194958799  TIP3      1496            0.0000000000
     21839      1633  TIP3      OH2           -18.7246410217       22.8843069063       32.7026875869  TIP3      1497            0.0000000000
     21840      1633  TIP3      H1            -18.5403538778       23.7892107288       32.3749046481  TIP3      1497            0.0000000000
     21841      1633  TIP3      H2            -18.2836316546       22.3796191703       31.9769491544  TIP3      1497            0.0000000000
     21842      1634  TIP3      OH2           -30.6004662790       21.9150874941       30.3684206941  TIP3      1498            0.0000000000
     21843      1634  TIP3      H1            -30.9666665870       21.3402424177       31.0540416718  TIP3      1498            0.0000000000
     21844      1634  TIP3      H2            -29.7770178972       21.4447752501       30.0970121015  TIP3      1498            0.0000000000
     21845      1635  TIP3      OH2           -28.5649390936       20.5967634496       29.2120871232  TIP3      1499            0.0000000000
     21846      1635  TIP3      H1            -28.6449313250       19.6403782157       29.3412866747  TIP3      1499            0.0000000000
     21847      1635  TIP3      H2            -27.6854742340       20.7557170837       29.6263468525  TIP3      1499            0.0000000000
     21848      1636  TIP3      OH2           -26.2172679197       20.8328784978       30.3042516346  TIP3      1500            0.0000000000
     21849      1636  TIP3      H1            -25.8822557769       19.9266474620       30.1548965898  TIP3      1500            0.0000000000
     21850      1636  TIP3      H2            -25.9882711624       20.9512236313       31.2434838741  TIP3      1500            0.0000000000
     21851      1637  TIP3      OH2           -23.4303853424        6.9822709097       28.3261617100  TIP3      1501            0.0000000000
     21852      1637  TIP3      H1            -24.0665064874        6.5132628511       28.9227640117  TIP3      1501            0.0000000000
     21853      1637  TIP3      H2            -22.5914445775        6.7216873492       28.7291682433  TIP3      1501            0.0000000000
     21854      1638  TIP3      OH2           -17.4300368544        5.0602000911       28.9256485600  TIP3      1502            0.0000000000
     21855      1638  TIP3      H1            -16.6902903077        5.5519058382       28.4994111430  TIP3      1502            0.0000000000
     21856      1638  TIP3      H2            -18.2123267190        5.4332517035       28.4611130614  TIP3      1502            0.0000000000
     21857      1639  TIP3      OH2           -15.6877503872        6.1724029832       27.2756195551  TIP3      1503            0.0000000000
     21858      1639  TIP3      H1            -15.1650534332        5.4110030087       26.9109959552  TIP3      1503            0.0000000000
     21859      1639  TIP3      H2            -14.9382887666        6.7640068755       27.5422966879  TIP3      1503            0.0000000000
     21860      1640  TIP3      OH2           -29.9924018289        5.1576939873       26.5407412642  TIP3      1504            0.0000000000
     21861      1640  TIP3      H1            -30.9133930646        5.0262600725       26.2216477877  TIP3      1504            0.0000000000
     21862      1640  TIP3      H2            -29.5965271318        4.2719756270       26.3791587171  TIP3      1504            0.0000000000
     21863      1641  TIP3      OH2           -25.5898679559        4.6506137268       26.6857295845  TIP3      1505            0.0000000000
     21864      1641  TIP3      H1            -24.7974057624        5.0892466549       26.3382149818  TIP3      1505            0.0000000000
     21865      1641  TIP3      H2            -25.4027795399        4.6983445111       27.6340492872  TIP3      1505            0.0000000000
     21866      1642  TIP3      OH2           -19.9642477512        5.2676861151       27.8644888444  TIP3      1506            0.0000000000
     21867      1642  TIP3      H1            -20.5468899416        5.0249696617       27.1338060643  TIP3      1506            0.0000000000
     21868      1642  TIP3      H2            -20.1149266391        4.4916189319       28.4567255500  TIP3      1506            0.0000000000
     21869      1643  TIP3      OH2           -18.0264707637        4.7979840092       24.2245818296  TIP3      1507            0.0000000000
     21870      1643  TIP3      H1            -18.5214953708        5.5367238244       24.6095214388  TIP3      1507            0.0000000000
     21871      1643  TIP3      H2            -18.6930317554        4.0803474866       24.3186943737  TIP3      1507            0.0000000000
     21872      1644  TIP3      OH2           -31.4305672873       21.0493805144       23.3101545423  TIP3      1508            0.0000000000
     21873      1644  TIP3      H1            -32.0946155375       21.7477031968       23.1871206106  TIP3      1508            0.0000000000
     21874      1644  TIP3      H2            -30.6383240145       21.5232653347       23.0093661864  TIP3      1508            0.0000000000
     21875      1645  TIP3      OH2           -24.8703831097        6.2213756801       23.7303119749  TIP3      1509            0.0000000000
     21876      1645  TIP3      H1            -24.2692234097        6.2863032633       24.4930838780  TIP3      1509            0.0000000000
     21877      1645  TIP3      H2            -24.6223522074        6.9569458878       23.1499362629  TIP3      1509            0.0000000000
     21878      1646  TIP3      OH2           -22.8900876728       22.9535006749       21.8528179992  TIP3      1510            0.0000000000
     21879      1646  TIP3      H1            -22.2569880130       23.3969715601       21.2624953697  TIP3      1510            0.0000000000
     21880      1646  TIP3      H2            -22.7503813269       22.0530162215       21.5223797382  TIP3      1510            0.0000000000
     21881      1647  TIP3      OH2           -15.7271543557       21.6342182971       24.6183375901  TIP3      1511            0.0000000000
     21882      1647  TIP3      H1            -15.7448135807       20.7339349277       24.2273401583  TIP3      1511            0.0000000000
     21883      1647  TIP3      H2            -16.4142134037       22.0696350114       24.1000913408  TIP3      1511            0.0000000000
     21884      1648  TIP3      OH2           -30.3896998877        5.5863512149       36.0636439565  TIP3      1512            0.0000000000
     21885      1648  TIP3      H1            -30.9495747274        4.8096027780       36.2287365092  TIP3      1512            0.0000000000
     21886      1648  TIP3      H2            -29.6891273066        5.4877803633       36.7488007100  TIP3      1512            0.0000000000
     21887      1649  TIP3      OH2           -28.4534937783        5.1850256633       38.0187180410  TIP3      1513            0.0000000000
     21888      1649  TIP3      H1            -27.7504754291        5.1038352113       37.3399731569  TIP3      1513            0.0000000000
     21889      1649  TIP3      H2            -28.3500442597        4.3338292465       38.4672596765  TIP3      1513            0.0000000000
     21890      1650  TIP3      OH2           -19.9823856497        4.4795159648       38.1561121585  TIP3      1514            0.0000000000
     21891      1650  TIP3      H1            -19.7938978282        4.0100347595       38.9977563683  TIP3      1514            0.0000000000
     21892      1650  TIP3      H2            -19.0959103073        4.4185859061       37.7385558940  TIP3      1514            0.0000000000
     21893      1651  TIP3      OH2           -16.6650483582       20.4189167733       36.8128312696  TIP3      1515            0.0000000000
     21894      1651  TIP3      H1            -17.3349041074       20.3512196687       36.0923094791  TIP3      1515            0.0000000000
     21895      1651  TIP3      H2            -16.6080943077       21.3847126207       36.8911465379  TIP3      1515            0.0000000000
     21896      1652  TIP3      OH2            -1.6093917068       14.5288348044       26.6481105910  TIP3      1516            0.0000000000
     21897      1652  TIP3      H1             -1.7181300322       15.4600680344       26.9360747370  TIP3      1516            0.0000000000
     21898      1652  TIP3      H2             -2.4306314969       14.4194559480       26.1408022216  TIP3      1516            0.0000000000
     21899      1653  TIP3      OH2            -3.3934084081       13.4588817431       29.9530749283  TIP3      1517            0.0000000000
     21900      1653  TIP3      H1             -3.1910712138       12.9799864122       30.7857108688  TIP3      1517            0.0000000000
     21901      1653  TIP3      H2             -4.1211596599       12.9381193793       29.5616126381  TIP3      1517            0.0000000000
     21902      1654  TIP3      OH2           -10.9900770147       13.0209503894       31.2808512888  TIP3      1518            0.0000000000
     21903      1654  TIP3      H1            -11.0284329917       12.4585421254       32.0733761180  TIP3      1518            0.0000000000
     21904      1654  TIP3      H2            -10.0986316481       12.7925111611       30.9298630001  TIP3      1518            0.0000000000
     21905      1655  TIP3      OH2             0.3723753551       16.9722500502       28.6085265333  TIP3      1519            0.0000000000
     21906      1655  TIP3      H1              0.8658491510       16.2331832744       28.9897784303  TIP3      1519            0.0000000000
     21907      1655  TIP3      H2              0.3609472924       17.6129415865       29.3427497553  TIP3      1519            0.0000000000
     21908      1656  TIP3      OH2            -9.7998051771       17.6087096210       30.3075305514  TIP3      1520            0.0000000000
     21909      1656  TIP3      H1            -10.1220611938       16.8571607760       29.7666011538  TIP3      1520            0.0000000000
     21910      1656  TIP3      H2             -8.8513853902       17.6081896678       30.0363168850  TIP3      1520            0.0000000000
     21911      1657  TIP3      OH2           -13.3010872792       10.7133723366       25.5860459759  TIP3      1521            0.0000000000
     21912      1657  TIP3      H1            -13.3822788053       11.6838079229       25.5563259356  TIP3      1521            0.0000000000
     21913      1657  TIP3      H2            -14.2279512221       10.4707486775       25.4935539610  TIP3      1521            0.0000000000
     21914      1658  TIP3      OH2           -13.3009740405       13.2628040322       28.1359440988  TIP3      1522            0.0000000000
     21915      1658  TIP3      H1            -12.9349107084       12.3454551821       28.1684887351  TIP3      1522            0.0000000000
     21916      1658  TIP3      H2            -12.5094810533       13.8048741228       27.9958694212  TIP3      1522            0.0000000000
     21917      1659  TIP3      OH2            -2.2303948651       22.0226788288       28.7820782903  TIP3      1523            0.0000000000
     21918      1659  TIP3      H1             -1.5791606088       21.4972731743       28.2549958998  TIP3      1523            0.0000000000
     21919      1659  TIP3      H2             -2.7884426822       21.2992488876       29.0935140275  TIP3      1523            0.0000000000
     21920      1660  TIP3      OH2            -5.1492625878       16.6554608285       30.9315886814  TIP3      1524            0.0000000000
     21921      1660  TIP3      H1             -4.9060617636       15.8572635113       30.4372081398  TIP3      1524            0.0000000000
     21922      1660  TIP3      H2             -4.2943988898       16.8294970891       31.3784283557  TIP3      1524            0.0000000000
     21923      1661  TIP3      OH2             3.4391400288        7.4769630840       31.4033508567  TIP3      1525            0.0000000000
     21924      1661  TIP3      H1              3.6673270862        7.8850027541       32.2748995355  TIP3      1525            0.0000000000
     21925      1661  TIP3      H2              4.2131004241        7.8055648259       30.9144611345  TIP3      1525            0.0000000000
     21926      1662  TIP3      OH2            -1.1402823139       10.5479764823       31.3489950904  TIP3      1526            0.0000000000
     21927      1662  TIP3      H1             -1.2992598116        9.6565649242       31.6982387539  TIP3      1526            0.0000000000
     21928      1662  TIP3      H2             -1.1793264294       10.3848028918       30.3859192980  TIP3      1526            0.0000000000
     21929      1663  TIP3      OH2            -8.3077230132        8.2891638547       27.8844414885  TIP3      1527            0.0000000000
     21930      1663  TIP3      H1             -8.2719903377        9.1148067907       27.3560849177  TIP3      1527            0.0000000000
     21931      1663  TIP3      H2             -8.8987432642        7.7699821867       27.2971634774  TIP3      1527            0.0000000000
     21932      1664  TIP3      OH2            -1.1965661050        8.8103544125       27.4159566385  TIP3      1528            0.0000000000
     21933      1664  TIP3      H1             -0.6100215429        8.3356022804       28.0516861031  TIP3      1528            0.0000000000
     21934      1664  TIP3      H2             -0.5077705633        9.2720616286       26.9029364563  TIP3      1528            0.0000000000
     21935      1665  TIP3      OH2           -12.1237871522       10.8390991065       28.5103029215  TIP3      1529            0.0000000000
     21936      1665  TIP3      H1            -11.4697190889       10.5232925285       29.1572292137  TIP3      1529            0.0000000000
     21937      1665  TIP3      H2            -11.7154956704       10.4969567286       27.6828749045  TIP3      1529            0.0000000000
     21938      1666  TIP3      OH2            -7.3523673154       12.4932835623       28.3109151670  TIP3      1530            0.0000000000
     21939      1666  TIP3      H1             -6.4097837595       12.2412442851       28.3498956006  TIP3      1530            0.0000000000
     21940      1666  TIP3      H2             -7.7168796100       11.7570461475       27.7722679311  TIP3      1530            0.0000000000
     21941      1667  TIP3      OH2             3.9526896446        8.7950653609       33.6237896898  TIP3      1531            0.0000000000
     21942      1667  TIP3      H1              3.5856530672        9.6670831925       33.3221355568  TIP3      1531            0.0000000000
     21943      1667  TIP3      H2              3.8043907875        8.8868818502       34.5778884907  TIP3      1531            0.0000000000
     21944      1668  TIP3      OH2            -9.1754055802        7.7295858344       32.1515677646  TIP3      1532            0.0000000000
     21945      1668  TIP3      H1             -9.5828985863        8.2045995809       31.3963984551  TIP3      1532            0.0000000000
     21946      1668  TIP3      H2             -9.8322060346        7.9701836467       32.8376602526  TIP3      1532            0.0000000000
     21947      1669  TIP3      OH2            -2.5874825674       17.0347782474       26.0166528979  TIP3      1533            0.0000000000
     21948      1669  TIP3      H1             -2.2740578423       16.7903897079       25.1270921674  TIP3      1533            0.0000000000
     21949      1669  TIP3      H2             -2.3595568069       17.9768461500       26.0773079365  TIP3      1533            0.0000000000
     21950      1670  TIP3      OH2            -7.5919800206       15.2879445179       31.6323780700  TIP3      1534            0.0000000000
     21951      1670  TIP3      H1             -8.1979341870       15.8801463989       32.1309459039  TIP3      1534            0.0000000000
     21952      1670  TIP3      H2             -6.8636020042       15.9130811683       31.4376621303  TIP3      1534            0.0000000000
     21953      1671  TIP3      OH2             1.0707359299        8.2755140161       28.7157129115  TIP3      1535            0.0000000000
     21954      1671  TIP3      H1              1.1539528666        7.5395959624       29.3353570932  TIP3      1535            0.0000000000
     21955      1671  TIP3      H2              1.7073056540        8.9220129665       29.0818207135  TIP3      1535            0.0000000000
     21956      1672  TIP3      OH2            -9.8657252851        9.3432580417       30.0305429554  TIP3      1536            0.0000000000
     21957      1672  TIP3      H1             -9.2728090587        9.9879243197       30.4761707935  TIP3      1536            0.0000000000
     21958      1672  TIP3      H2             -9.3555830703        9.1306009024       29.2110226041  TIP3      1536            0.0000000000
     21959      1673  TIP3      OH2            -8.6916565795       17.2986896669       33.1145019464  TIP3      1537            0.0000000000
     21960      1673  TIP3      H1             -9.0736962500       17.8101825276       32.3824607347  TIP3      1537            0.0000000000
     21961      1673  TIP3      H2             -9.5053588117       17.1574202225       33.6675790862  TIP3      1537            0.0000000000
     21962      1674  TIP3      OH2           -12.8410223119       16.4658618301       23.6379676839  TIP3      1538            0.0000000000
     21963      1674  TIP3      H1            -12.8878571241       17.0655504157       22.8503996412  TIP3      1538            0.0000000000
     21964      1674  TIP3      H2            -12.7440475397       17.1331917521       24.3618269201  TIP3      1538            0.0000000000
     21965      1675  TIP3      OH2             0.8111519579       18.6115837079       30.9346004457  TIP3      1539            0.0000000000
     21966      1675  TIP3      H1             -0.1409124020       18.6102754603       31.2044900626  TIP3      1539            0.0000000000
     21967      1675  TIP3      H2              0.9042035643       19.5311146790       30.6187310767  TIP3      1539            0.0000000000
     21968      1676  TIP3      OH2             0.8343796541        6.9244605591       32.3741081451  TIP3      1540            0.0000000000
     21969      1676  TIP3      H1              0.1332288825        7.2749209603       31.7742831802  TIP3      1540            0.0000000000
     21970      1676  TIP3      H2              1.6611197829        7.0680867799       31.8844259428  TIP3      1540            0.0000000000
     21971      1677  TIP3      OH2            -6.2664670076        4.5778244010       29.9620641913  TIP3      1541            0.0000000000
     21972      1677  TIP3      H1             -6.7331133893        3.7902347438       29.6528673449  TIP3      1541            0.0000000000
     21973      1677  TIP3      H2             -7.0539874878        5.1786317128       30.0410805861  TIP3      1541            0.0000000000
     21974      1678  TIP3      OH2            -0.5719944476       20.3826792229       27.4686188298  TIP3      1542            0.0000000000
     21975      1678  TIP3      H1             -0.5997925163       19.5669343379       26.9360430474  TIP3      1542            0.0000000000
     21976      1678  TIP3      H2              0.1720019404       20.8443826262       27.0274734852  TIP3      1542            0.0000000000
     21977      1679  TIP3      OH2             0.1324770728       18.0450611660       26.0146826112  TIP3      1543            0.0000000000
     21978      1679  TIP3      H1              0.4188843020       17.3549489728       25.3736698987  TIP3      1543            0.0000000000
     21979      1679  TIP3      H2              0.2187320950       17.6129828031       26.8828858556  TIP3      1543            0.0000000000
     21980      1680  TIP3      OH2             1.6787571198       16.6826526965       34.4573413851  TIP3      1544            0.0000000000
     21981      1680  TIP3      H1              1.8794418837       16.0173962691       33.7634879904  TIP3      1544            0.0000000000
     21982      1680  TIP3      H2              1.9608837415       17.4967661010       33.9900468953  TIP3      1544            0.0000000000
     21983      1681  TIP3      OH2            -3.5822790886       13.7269709264       23.9616251779  TIP3      1545            0.0000000000
     21984      1681  TIP3      H1             -4.0668612970       14.5810365418       23.9781718530  TIP3      1545            0.0000000000
     21985      1681  TIP3      H2             -3.5452492199       13.6088153203       22.9859086555  TIP3      1545            0.0000000000
     21986      1682  TIP3      OH2             4.0260978070       13.3315736642       32.5749893858  TIP3      1546            0.0000000000
     21987      1682  TIP3      H1              3.3562671293       13.9857300914       32.2791469524  TIP3      1546            0.0000000000
     21988      1682  TIP3      H2              4.7278781791       13.5715782469       31.9359231206  TIP3      1546            0.0000000000
     21989      1683  TIP3      OH2             0.4765660316       13.7302180706       25.2214075207  TIP3      1547            0.0000000000
     21990      1683  TIP3      H1             -0.2365097104       14.0097671566       25.8407151520  TIP3      1547            0.0000000000
     21991      1683  TIP3      H2              1.0417237905       13.1650245157       25.7743230784  TIP3      1547            0.0000000000
     21992      1684  TIP3      OH2            -0.5825976559       12.2771199174       34.6890281616  TIP3      1548            0.0000000000
     21993      1684  TIP3      H1             -0.9461609668       13.0831493629       35.0938945718  TIP3      1548            0.0000000000
     21994      1684  TIP3      H2             -1.0387432071       12.3294768833       33.8218131597  TIP3      1548            0.0000000000
     21995      1685  TIP3      OH2            -8.6973848639       14.3357567831       27.0333443584  TIP3      1549            0.0000000000
     21996      1685  TIP3      H1             -9.2468782882       13.7308720631       26.4853224706  TIP3      1549            0.0000000000
     21997      1685  TIP3      H2             -8.0467353236       13.7103979147       27.4118869878  TIP3      1549            0.0000000000
     21998      1686  TIP3      OH2            -7.2463644715       17.7799101731       29.5443762587  TIP3      1550            0.0000000000
     21999      1686  TIP3      H1             -7.0623310250       17.6328691130       28.5982043833  TIP3      1550            0.0000000000
     22000      1686  TIP3      H2             -6.4271245351       17.4461742472       29.9760123920  TIP3      1550            0.0000000000
     22001      1687  TIP3      OH2            -8.3392321107       12.8760248117       30.7605729935  TIP3      1551            0.0000000000
     22002      1687  TIP3      H1             -8.0134952068       12.8948783886       29.8272130010  TIP3      1551            0.0000000000
     22003      1687  TIP3      H2             -7.9466447412       13.7181874663       31.1029162957  TIP3      1551            0.0000000000
     22004      1688  TIP3      OH2            -1.7353894650       18.7925072043       31.6880862979  TIP3      1552            0.0000000000
     22005      1688  TIP3      H1             -2.0383915567       19.3780590798       32.4020529047  TIP3      1552            0.0000000000
     22006      1688  TIP3      H2             -2.1218539389       17.9466183537       31.9885678976  TIP3      1552            0.0000000000
     22007      1689  TIP3      OH2            -6.8630520600       17.7666430417       35.0350514014  TIP3      1553            0.0000000000
     22008      1689  TIP3      H1             -7.5338553082       18.1408327017       35.6567578296  TIP3      1553            0.0000000000
     22009      1689  TIP3      H2             -7.4590505081       17.6048220405       34.2649655538  TIP3      1553            0.0000000000
     22010      1690  TIP3      OH2            -0.2682485373       12.4275944723       22.9135064250  TIP3      1554            0.0000000000
     22011      1690  TIP3      H1             -0.0101475099       13.1129202986       23.5606391501  TIP3      1554            0.0000000000
     22012      1690  TIP3      H2             -0.5457239949       12.9521291288       22.1346975274  TIP3      1554            0.0000000000
     22013      1691  TIP3      OH2           -10.0917727194       13.3286018297       34.4772642481  TIP3      1555            0.0000000000
     22014      1691  TIP3      H1             -9.8618340146       14.2231835402       34.7729883384  TIP3      1555            0.0000000000
     22015      1691  TIP3      H2            -10.8183203063       13.1496842398       35.1077747480  TIP3      1555            0.0000000000
     22016      1692  TIP3      OH2            -3.3589426432       20.1800639071       25.6545104853  TIP3      1556            0.0000000000
     22017      1692  TIP3      H1             -3.6226050822       20.1943736699       26.5814664755  TIP3      1556            0.0000000000
     22018      1692  TIP3      H2             -3.7737638077       20.9858358573       25.2994412456  TIP3      1556            0.0000000000
     22019      1693  TIP3      OH2            -8.9496214715       19.0932911690       36.3614982810  TIP3      1557            0.0000000000
     22020      1693  TIP3      H1             -8.9404389878       19.7555495330       35.6385758052  TIP3      1557            0.0000000000
     22021      1693  TIP3      H2             -9.9132330249       18.9124450358       36.4167850810  TIP3      1557            0.0000000000
     22022      1694  TIP3      OH2             2.2580249553        4.8575486133       23.1046170161  TIP3      1558            0.0000000000
     22023      1694  TIP3      H1              1.3296456462        4.6637036111       22.9184831913  TIP3      1558            0.0000000000
     22024      1694  TIP3      H2              2.1347609129        5.4835639333       23.8535930685  TIP3      1558            0.0000000000
     22025      1695  TIP3      OH2           -10.2765483056       13.1595650832       25.1837395810  TIP3      1559            0.0000000000
     22026      1695  TIP3      H1            -10.2349918216       14.0371155872       24.7431473065  TIP3      1559            0.0000000000
     22027      1695  TIP3      H2            -10.8683757254       12.7320685586       24.5524015786  TIP3      1559            0.0000000000
     22028      1696  TIP3      OH2           -13.2904057964       15.9892889573       33.4830136701  TIP3      1560            0.0000000000
     22029      1696  TIP3      H1            -13.7474168955       16.1792016510       32.6562647329  TIP3      1560            0.0000000000
     22030      1696  TIP3      H2            -12.9212003666       15.1025695213       33.3174047080  TIP3      1560            0.0000000000
     22031      1697  TIP3      OH2           -13.2275054573       18.4966925606       30.4172568631  TIP3      1561            0.0000000000
     22032      1697  TIP3      H1            -12.3735232348       18.0440766435       30.3311428246  TIP3      1561            0.0000000000
     22033      1697  TIP3      H2            -13.1121832849       18.9935577295       31.2537776500  TIP3      1561            0.0000000000
     22034      1698  TIP3      OH2             4.6342535709       19.3220725973       36.0526744332  TIP3      1562            0.0000000000
     22035      1698  TIP3      H1              4.4486824718       18.3775466852       35.9144659759  TIP3      1562            0.0000000000
     22036      1698  TIP3      H2              3.7703699460       19.5757127020       36.4565151477  TIP3      1562            0.0000000000
     22037      1699  TIP3      OH2            -4.3806260278       18.7950012381       34.7755889692  TIP3      1563            0.0000000000
     22038      1699  TIP3      H1             -4.2276998130       19.2484414835       35.6218193959  TIP3      1563            0.0000000000
     22039      1699  TIP3      H2             -5.2763207007       18.4103895013       34.9225373184  TIP3      1563            0.0000000000
     22040      1700  TIP3      OH2            -3.7001194876       22.7546891264       24.3177335430  TIP3      1564            0.0000000000
     22041      1700  TIP3      H1             -4.0059468649       23.0659838023       23.4564138135  TIP3      1564            0.0000000000
     22042      1700  TIP3      H2             -3.9224321860       23.5208670513       24.8984004767  TIP3      1564            0.0000000000
     22043      1701  TIP3      OH2           -10.5877802052       21.0851986553       27.1191147680  TIP3      1565            0.0000000000
     22044      1701  TIP3      H1            -10.2033222122       20.8889315800       27.9994416976  TIP3      1565            0.0000000000
     22045      1701  TIP3      H2            -11.4806977962       20.7351714967       27.2249996984  TIP3      1565            0.0000000000
     22046      1702  TIP3      OH2            -0.0844909280       21.5451788565       21.4482173906  TIP3      1566            0.0000000000
     22047      1702  TIP3      H1             -0.1432205807       20.6225392853       21.1545403736  TIP3      1566            0.0000000000
     22048      1702  TIP3      H2             -0.4212436650       21.5129228096       22.3626139202  TIP3      1566            0.0000000000
     22049      1703  TIP3      OH2            -0.8969171063       21.9637576586       24.0122837855  TIP3      1567            0.0000000000
     22050      1703  TIP3      H1             -1.7742747333       21.8622084601       24.4187653009  TIP3      1567            0.0000000000
     22051      1703  TIP3      H2             -0.2974191093       21.7332530567       24.7618539934  TIP3      1567            0.0000000000
     22052      1704  TIP3      OH2             1.7190490616       11.1758651116       36.3842593085  TIP3      1568            0.0000000000
     22053      1704  TIP3      H1              1.1657390059       11.6466282631       35.7279975491  TIP3      1568            0.0000000000
     22054      1704  TIP3      H2              1.7268123753       10.2697959573       36.0100364943  TIP3      1568            0.0000000000
     22055      1705  TIP3      OH2           -10.9842775464       17.0569317912       34.3929250518  TIP3      1569            0.0000000000
     22056      1705  TIP3      H1            -10.9107622336       16.6570907776       35.2941685588  TIP3      1569            0.0000000000
     22057      1705  TIP3      H2            -11.8842916420       16.7718887407       34.1335580895  TIP3      1569            0.0000000000
     22058      1706  TIP3      OH2            -8.5251185034        5.9139197162       30.3242999505  TIP3      1570            0.0000000000
     22059      1706  TIP3      H1             -9.4756290259        5.7061600092       30.2319382183  TIP3      1570            0.0000000000
     22060      1706  TIP3      H2             -8.5351302148        6.5545065926       31.0671689916  TIP3      1570            0.0000000000
     22061      1707  TIP3      OH2            -3.5363295119        5.5196130009       33.5817571978  TIP3      1571            0.0000000000
     22062      1707  TIP3      H1             -3.1720476823        5.0201428108       34.3500924430  TIP3      1571            0.0000000000
     22063      1707  TIP3      H2             -4.5011123216        5.3681786611       33.6725403178  TIP3      1571            0.0000000000
     22064      1708  TIP3      OH2            -0.8359413412        9.5398690940       35.2508173606  TIP3      1572            0.0000000000
     22065      1708  TIP3      H1             -1.6909586536        9.3226930044       35.7048746352  TIP3      1572            0.0000000000
     22066      1708  TIP3      H2             -0.9598321091       10.4808649839       35.0184032188  TIP3      1572            0.0000000000
     22067      1709  TIP3      OH2            -8.2195703559       10.5114837209       31.9584083961  TIP3      1573            0.0000000000
     22068      1709  TIP3      H1             -9.0908983946       10.5604297578       32.4138131107  TIP3      1573            0.0000000000
     22069      1709  TIP3      H2             -8.1940856796       11.4012275462       31.5364432164  TIP3      1573            0.0000000000
     22070      1710  TIP3      OH2            -8.3693076795       10.6422678763       26.5713439226  TIP3      1574            0.0000000000
     22071      1710  TIP3      H1             -9.3434965991       10.6261112168       26.4202354959  TIP3      1574            0.0000000000
     22072      1710  TIP3      H2             -8.0439554054       10.6420788193       25.6461057197  TIP3      1574            0.0000000000
     22073      1711  TIP3      OH2            -2.9624256684       11.8879703836       25.9298367569  TIP3      1575            0.0000000000
     22074      1711  TIP3      H1             -3.4025583323       12.5539879024       25.3503373849  TIP3      1575            0.0000000000
     22075      1711  TIP3      H2             -2.0818339729       11.9487324610       25.5454327435  TIP3      1575            0.0000000000
     22076      1712  TIP3      OH2            -3.7855546865       12.0296385092       36.5258783808  TIP3      1576            0.0000000000
     22077      1712  TIP3      H1             -4.1031971948       11.2565374386       37.0189444851  TIP3      1576            0.0000000000
     22078      1712  TIP3      H2             -3.2527904680       12.4784532082       37.2069136949  TIP3      1576            0.0000000000
     22079      1713  TIP3      OH2            -1.4700520675       11.4310478357       28.6318387480  TIP3      1577            0.0000000000
     22080      1713  TIP3      H1             -1.9533253325       12.2159736759       28.3211033369  TIP3      1577            0.0000000000
     22081      1713  TIP3      H2             -1.8025670549       10.7745167573       27.9942530474  TIP3      1577            0.0000000000
     22082      1714  TIP3      OH2           -10.7216383560       10.7297423477       32.9237786787  TIP3      1578            0.0000000000
     22083      1714  TIP3      H1            -10.4909895630       11.2977740835       33.6764384085  TIP3      1578            0.0000000000
     22084      1714  TIP3      H2            -11.0158417000        9.9055686569       33.3665461630  TIP3      1578            0.0000000000
     22085      1715  TIP3      OH2           -13.5430200073        7.8191718869       27.6421401560  TIP3      1579            0.0000000000
     22086      1715  TIP3      H1            -12.9660807178        7.8625778542       28.4277193916  TIP3      1579            0.0000000000
     22087      1715  TIP3      H2            -13.3184180767        8.6447390708       27.1852790569  TIP3      1579            0.0000000000
     22088      1716  TIP3      OH2           -13.3227708403        8.7666689879       22.8837441028  TIP3      1580            0.0000000000
     22089      1716  TIP3      H1            -12.7694699617        9.1171808156       22.1841964352  TIP3      1580            0.0000000000
     22090      1716  TIP3      H2            -14.0668970458        9.4055203368       22.8950887919  TIP3      1580            0.0000000000
     22091      1717  TIP3      OH2            -2.6085650711       12.4996216518       32.4454274068  TIP3      1581            0.0000000000
     22092      1717  TIP3      H1             -2.0429619644       11.8050550527       32.0305945327  TIP3      1581            0.0000000000
     22093      1717  TIP3      H2             -3.2143205869       11.9631285717       33.0092361184  TIP3      1581            0.0000000000
     22094      1718  TIP3      OH2            -5.3359753157        8.2300285442       27.7412940435  TIP3      1582            0.0000000000
     22095      1718  TIP3      H1             -6.2800671680        8.3677758492       27.9545475668  TIP3      1582            0.0000000000
     22096      1718  TIP3      H2             -5.0058069632        7.7458242962       28.5352490964  TIP3      1582            0.0000000000
     22097      1719  TIP3      OH2           -10.9659374277        9.7576142771       26.3590043454  TIP3      1583            0.0000000000
     22098      1719  TIP3      H1            -11.7289184410       10.0092240877       25.7860523278  TIP3      1583            0.0000000000
     22099      1719  TIP3      H2            -10.7001801451        8.8775460041       26.0047161232  TIP3      1583            0.0000000000
     22100      1720  TIP3      OH2            -7.5546943097        9.9511280978       24.0397565419  TIP3      1584            0.0000000000
     22101      1720  TIP3      H1             -6.7054959717        9.7999684971       24.5153378862  TIP3      1584            0.0000000000
     22102      1720  TIP3      H2             -7.2486320915       10.5536758440       23.3546522992  TIP3      1584            0.0000000000
     22103      1721  TIP3      OH2            -1.3404103855        7.5941972096       31.0182613575  TIP3      1585            0.0000000000
     22104      1721  TIP3      H1             -1.9333776116        7.5290227592       31.7985582001  TIP3      1585            0.0000000000
     22105      1721  TIP3      H2             -1.7607604872        6.9681820097       30.4077358244  TIP3      1585            0.0000000000
     22106      1722  TIP3      OH2             1.5050510642       23.3144721542       37.3594277034  TIP3      1586            0.0000000000
     22107      1722  TIP3      H1              1.7769522604       23.4128390943       36.4173253737  TIP3      1586            0.0000000000
     22108      1722  TIP3      H2              2.3269500555       23.5038331050       37.8273601834  TIP3      1586            0.0000000000
     22109      1723  TIP3      OH2           -10.6195658485       15.6190960401       36.6934362095  TIP3      1587            0.0000000000
     22110      1723  TIP3      H1             -9.9513540238       15.9251512352       37.3333616623  TIP3      1587            0.0000000000
     22111      1723  TIP3      H2            -11.3966582067       15.4581207183       37.2717703891  TIP3      1587            0.0000000000
     22112      1724  TIP3      OH2            -4.9820513826       11.3112390025       29.2854884568  TIP3      1588            0.0000000000
     22113      1724  TIP3      H1             -4.2715918179       10.6924797639       29.0424123749  TIP3      1588            0.0000000000
     22114      1724  TIP3      H2             -5.3746283801       10.8660819764       30.0636625198  TIP3      1588            0.0000000000
     22115      1725  TIP3      OH2            -9.9259958645        7.2276270205       26.0148856789  TIP3      1589            0.0000000000
     22116      1725  TIP3      H1            -10.3992662656        6.4483126215       26.3896078591  TIP3      1589            0.0000000000
     22117      1725  TIP3      H2             -9.6116194412        6.8755624450       25.1733796320  TIP3      1589            0.0000000000
     22118      1726  TIP3      OH2            -5.6531329286        9.6111390124       31.7359787340  TIP3      1590            0.0000000000
     22119      1726  TIP3      H1             -6.5497485493        9.9736967236       31.9040183475  TIP3      1590            0.0000000000
     22120      1726  TIP3      H2             -5.1081275368       10.1273625074       32.3566979282  TIP3      1590            0.0000000000
     22121      1727  TIP3      OH2            -5.1129414483       15.9735708312       23.9695439129  TIP3      1591            0.0000000000
     22122      1727  TIP3      H1             -5.7813713504       15.6233338880       23.3341365110  TIP3      1591            0.0000000000
     22123      1727  TIP3      H2             -5.6982501428       16.2397827998       24.7134331025  TIP3      1591            0.0000000000
     22124      1728  TIP3      OH2             2.3152032095       15.3867214187       32.1527254126  TIP3      1592            0.0000000000
     22125      1728  TIP3      H1              2.7377437437       15.8092766642       31.3675756218  TIP3      1592            0.0000000000
     22126      1728  TIP3      H2              1.4422799589       15.1212189748       31.8036216453  TIP3      1592            0.0000000000
     22127      1729  TIP3      OH2            -2.3338206110        8.3818757775       21.5389077098  TIP3      1593            0.0000000000
     22128      1729  TIP3      H1             -2.9995365934        7.8637695497       22.0144766623  TIP3      1593            0.0000000000
     22129      1729  TIP3      H2             -1.8286612526        8.8527493403       22.2359703295  TIP3      1593            0.0000000000
     22130      1730  TIP3      OH2            -4.5411680604       15.5986941467       34.2822953595  TIP3      1594            0.0000000000
     22131      1730  TIP3      H1             -4.0185250207       15.5980280495       35.0983851326  TIP3      1594            0.0000000000
     22132      1730  TIP3      H2             -4.8550838454       16.5202547533       34.2500745443  TIP3      1594            0.0000000000
     22133      1731  TIP3      OH2            -0.5869217003        9.7671410098       23.1447634519  TIP3      1595            0.0000000000
     22134      1731  TIP3      H1             -0.2699136328        9.8989985762       24.0491302961  TIP3      1595            0.0000000000
     22135      1731  TIP3      H2             -0.5728617958       10.7109669603       22.8530238892  TIP3      1595            0.0000000000
     22136      1732  TIP3      OH2           -10.4026701033       15.2350573455       28.9705198270  TIP3      1596            0.0000000000
     22137      1732  TIP3      H1             -9.8846265118       15.0542365178       28.1511424260  TIP3      1596            0.0000000000
     22138      1732  TIP3      H2            -10.0619023468       14.5904603761       29.5993371597  TIP3      1596            0.0000000000
     22139      1733  TIP3      OH2            -2.8649355062       17.1769628438       23.1533445789  TIP3      1597            0.0000000000
     22140      1733  TIP3      H1             -3.1129497388       17.8099457833       23.8331332103  TIP3      1597            0.0000000000
     22141      1733  TIP3      H2             -3.5216151232       16.4607371457       23.2867036891  TIP3      1597            0.0000000000
     22142      1734  TIP3      OH2           -13.3851613904       13.2013556381       35.0210579152  TIP3      1598            0.0000000000
     22143      1734  TIP3      H1            -13.5871177180       12.4908176687       35.6477562911  TIP3      1598            0.0000000000
     22144      1734  TIP3      H2            -13.9180303744       12.9607638550       34.2350893362  TIP3      1598            0.0000000000
     22145      1735  TIP3      OH2            -6.2549147505       13.2643730491       36.3741798314  TIP3      1599            0.0000000000
     22146      1735  TIP3      H1             -6.7037978641       12.6429891831       35.7585732663  TIP3      1599            0.0000000000
     22147      1735  TIP3      H2             -5.3131153198       13.0159567897       36.2401420880  TIP3      1599            0.0000000000
     22148      1736  TIP3      OH2            -1.3638688659       18.6269892440       35.1452882952  TIP3      1600            0.0000000000
     22149      1736  TIP3      H1             -2.1912960842       18.8074081270       34.6716674412  TIP3      1600            0.0000000000
     22150      1736  TIP3      H2             -1.6032040512       18.9847229665       36.0253886325  TIP3      1600            0.0000000000
     22151      1737  TIP3      OH2             4.2214647004       16.5437929518       35.8416474813  TIP3      1601            0.0000000000
     22152      1737  TIP3      H1              3.3058653102       16.5545835458       35.4867604028  TIP3      1601            0.0000000000
     22153      1737  TIP3      H2              4.7528772168       16.3693838999       35.0287625030  TIP3      1601            0.0000000000
     22154      1738  TIP3      OH2             2.3539472518       19.0989768668       23.3116203422  TIP3      1602            0.0000000000
     22155      1738  TIP3      H1              1.4992857502       18.7217468189       23.5570711744  TIP3      1602            0.0000000000
     22156      1738  TIP3      H2              2.8259167855       18.2715179294       23.0718523110  TIP3      1602            0.0000000000
     22157      1739  TIP3      OH2            -0.0095170136       14.2081798647       30.6391613681  TIP3      1603            0.0000000000
     22158      1739  TIP3      H1             -0.9287578462       14.1707886748       30.3385543927  TIP3      1603            0.0000000000
     22159      1739  TIP3      H2              0.4347421429       13.5777931254       30.0360172567  TIP3      1603            0.0000000000
     22160      1740  TIP3      OH2            -8.3125533168       18.5548418725       26.9757112276  TIP3      1604            0.0000000000
     22161      1740  TIP3      H1             -7.9727530390       19.4478174151       26.7157241039  TIP3      1604            0.0000000000
     22162      1740  TIP3      H2             -9.2302569036       18.6310726784       26.6909635712  TIP3      1604            0.0000000000
     22163      1741  TIP3      OH2            -6.8384154031       16.4657840478       26.0687756375  TIP3      1605            0.0000000000
     22164      1741  TIP3      H1             -7.4454712920       17.1582681594       26.4167155823  TIP3      1605            0.0000000000
     22165      1741  TIP3      H2             -7.1336132768       15.6651438210       26.5300485810  TIP3      1605            0.0000000000
     22166      1742  TIP3      OH2            -5.9232692699       20.5235101182       33.2462301731  TIP3      1606            0.0000000000
     22167      1742  TIP3      H1             -5.3229523287       21.1257176065       32.7836665020  TIP3      1606            0.0000000000
     22168      1742  TIP3      H2             -5.3067616264       20.0907605716       33.8744547477  TIP3      1606            0.0000000000
     22169      1743  TIP3      OH2            -7.9042069584       21.0274691727       26.0904283357  TIP3      1607            0.0000000000
     22170      1743  TIP3      H1             -8.8673777174       21.1669107012       26.2086412434  TIP3      1607            0.0000000000
     22171      1743  TIP3      H2             -7.5930922674       21.9482361639       26.1821570371  TIP3      1607            0.0000000000
     22172      1744  TIP3      OH2            -2.8259918566       16.2435966997       32.1976154657  TIP3      1608            0.0000000000
     22173      1744  TIP3      H1             -3.1560094919       15.7651396778       32.9826121057  TIP3      1608            0.0000000000
     22174      1744  TIP3      H2             -2.5026164207       15.5147108741       31.6426685109  TIP3      1608            0.0000000000
     22175      1745  TIP3      OH2             0.4578854754       20.9865651877       34.7083343186  TIP3      1609            0.0000000000
     22176      1745  TIP3      H1             -0.3712200526       20.4945984614       34.5540891792  TIP3      1609            0.0000000000
     22177      1745  TIP3      H2              0.4317897833       21.6586224016       33.9843287937  TIP3      1609            0.0000000000
     22178      1746  TIP3      OH2             5.0201325971       22.5210557794       21.7475121471  TIP3      1610            0.0000000000
     22179      1746  TIP3      H1              5.0714620652       23.1864697939       21.0186868088  TIP3      1610            0.0000000000
     22180      1746  TIP3      H2              4.4049282293       22.9804918276       22.3356988524  TIP3      1610            0.0000000000
     22181      1747  TIP3      OH2           -11.2806195475        8.2075679484       33.8147887224  TIP3      1611            0.0000000000
     22182      1747  TIP3      H1            -12.1876630783        8.5437834232       33.8204063418  TIP3      1611            0.0000000000
     22183      1747  TIP3      H2            -11.3606825427        7.3473175635       34.2674452932  TIP3      1611            0.0000000000
     22184      1748  TIP3      OH2             0.8742445162       16.2303919632       24.0616967976  TIP3      1612            0.0000000000
     22185      1748  TIP3      H1              0.5627755102       15.3125279563       24.1784235164  TIP3      1612            0.0000000000
     22186      1748  TIP3      H2              1.7269950593       16.0692255580       23.6124440019  TIP3      1612            0.0000000000
     22187      1749  TIP3      OH2           -11.9648737241       19.8250453024       32.6361308980  TIP3      1613            0.0000000000
     22188      1749  TIP3      H1            -11.1773669108       19.2658693621       32.6390381577  TIP3      1613            0.0000000000
     22189      1749  TIP3      H2            -11.8394939667       20.3480270701       33.4464311282  TIP3      1613            0.0000000000
     22190      1750  TIP3      OH2           -10.6720282992       14.8668163587       22.9872819105  TIP3      1614            0.0000000000
     22191      1750  TIP3      H1            -11.4282751226       15.4265378264       23.2574612347  TIP3      1614            0.0000000000
     22192      1750  TIP3      H2            -10.6252401895       15.1197702752       22.0494564406  TIP3      1614            0.0000000000
     22193      1751  TIP3      OH2            -2.5638367799        8.0872761542       33.4774462375  TIP3      1615            0.0000000000
     22194      1751  TIP3      H1             -1.7110890922        8.0986389110       33.9448057864  TIP3      1615            0.0000000000
     22195      1751  TIP3      H2             -2.9404410912        7.2285831588       33.7573800394  TIP3      1615            0.0000000000
     22196      1752  TIP3      OH2            -2.3048663833        7.9010646861       25.1400467674  TIP3      1616            0.0000000000
     22197      1752  TIP3      H1             -1.5266276154        7.5941854591       24.6508266476  TIP3      1616            0.0000000000
     22198      1752  TIP3      H2             -1.9029958528        8.4447957151       25.8556482258  TIP3      1616            0.0000000000
     22199      1753  TIP3      OH2            -5.1077170232        9.8353803927       25.3351307001  TIP3      1617            0.0000000000
     22200      1753  TIP3      H1             -4.3424091802       10.4402148913       25.4284130292  TIP3      1617            0.0000000000
     22201      1753  TIP3      H2             -5.1245113848        9.3606211860       26.1894439968  TIP3      1617            0.0000000000
     22202      1754  TIP3      OH2            -3.7338816557       10.4682240749       33.9786631568  TIP3      1618            0.0000000000
     22203      1754  TIP3      H1             -3.6635277434       10.6285406738       34.9376783879  TIP3      1618            0.0000000000
     22204      1754  TIP3      H2             -3.3610948335        9.5649082945       33.8636498377  TIP3      1618            0.0000000000
     22205      1755  TIP3      OH2            -4.0715566609        6.2350235873       26.2898668651  TIP3      1619            0.0000000000
     22206      1755  TIP3      H1             -4.4692860149        6.7912980654       27.0001469611  TIP3      1619            0.0000000000
     22207      1755  TIP3      H2             -3.3491614316        6.8499047734       25.9985366707  TIP3      1619            0.0000000000
     22208      1756  TIP3      OH2            -8.1376992575        7.5076137193       22.7923497792  TIP3      1620            0.0000000000
     22209      1756  TIP3      H1             -8.1744732216        8.3492117908       23.2852283264  TIP3      1620            0.0000000000
     22210      1756  TIP3      H2             -7.3075778814        7.0940197123       23.1231663622  TIP3      1620            0.0000000000
     22211      1757  TIP3      OH2             1.7793823447        8.6262427546       35.5436259367  TIP3      1621            0.0000000000
     22212      1757  TIP3      H1              0.8130991420        8.8001641646       35.4232555265  TIP3      1621            0.0000000000
     22213      1757  TIP3      H2              1.8967530640        7.8689516169       34.9605065165  TIP3      1621            0.0000000000
     22214      1758  TIP3      OH2             1.0231611077       12.3624025898       28.9621524540  TIP3      1622            0.0000000000
     22215      1758  TIP3      H1              0.1516618636       11.9355476847       29.1131692113  TIP3      1622            0.0000000000
     22216      1758  TIP3      H2              1.6000584495       11.7703390297       29.4942506039  TIP3      1622            0.0000000000
     22217      1759  TIP3      OH2             1.2561884478       21.4433119773       30.8299364123  TIP3      1623            0.0000000000
     22218      1759  TIP3      H1              1.3070819582       21.9392776979       29.9872611493  TIP3      1623            0.0000000000
     22219      1759  TIP3      H2              2.2064176812       21.3384932011       31.0322722251  TIP3      1623            0.0000000000
     22220      1760  TIP3      OH2           -11.1355552883        5.2832076657       29.9701077723  TIP3      1624            0.0000000000
     22221      1760  TIP3      H1            -11.0855180267        5.1895401802       28.9944043793  TIP3      1624            0.0000000000
     22222      1760  TIP3      H2            -11.3843345003        4.3692143849       30.2165172782  TIP3      1624            0.0000000000
     22223      1761  TIP3      OH2           -12.5947908358       18.6766701807       25.1978346268  TIP3      1625            0.0000000000
     22224      1761  TIP3      H1            -12.9472673784       19.3511972519       25.7875935975  TIP3      1625            0.0000000000
     22225      1761  TIP3      H2            -12.1895531470       19.2421967794       24.5148227570  TIP3      1625            0.0000000000
     22226      1762  TIP3      OH2           -13.1057782776       22.2131245345       37.1280184275  TIP3      1626            0.0000000000
     22227      1762  TIP3      H1            -12.4164524653       22.0394337085       37.8102352600  TIP3      1626            0.0000000000
     22228      1762  TIP3      H2            -13.3632498339       21.2933299484       36.9228931389  TIP3      1626            0.0000000000
     22229      1763  TIP3      OH2            -8.2325722787       20.8520126354       38.3993856472  TIP3      1627            0.0000000000
     22230      1763  TIP3      H1             -7.3063241059       20.5390300799       38.4168243476  TIP3      1627            0.0000000000
     22231      1763  TIP3      H2             -8.5300417951       20.3481881493       37.6152128710  TIP3      1627            0.0000000000
     22232      1764  TIP3      OH2            -1.7948382570       19.7367898294       37.6283235296  TIP3      1628            0.0000000000
     22233      1764  TIP3      H1             -2.0251557971       18.8357225734       37.9287661625  TIP3      1628            0.0000000000
     22234      1764  TIP3      H2             -0.8788746533       19.8321494248       37.9647427046  TIP3      1628            0.0000000000
     22235      1765  TIP3      OH2           -13.0617180406       15.5639917059       37.9108717214  TIP3      1629            0.0000000000
     22236      1765  TIP3      H1            -13.4858186040       14.6896591416       37.9486315730  TIP3      1629            0.0000000000
     22237      1765  TIP3      H2            -13.5017285811       15.9804464505       37.1374325883  TIP3      1629            0.0000000000
     22238      1766  TIP3      OH2            -6.3057637435       15.8207299294       37.0849968412  TIP3      1630            0.0000000000
     22239      1766  TIP3      H1             -6.2816994329       16.3239901641       36.2517146558  TIP3      1630            0.0000000000
     22240      1766  TIP3      H2             -6.3676684073       14.8919853877       36.7580481377  TIP3      1630            0.0000000000
     22241      1767  TIP3      OH2            -0.8554860431       15.5426414752       35.2247386353  TIP3      1631            0.0000000000
     22242      1767  TIP3      H1              0.0802962582       15.7908500871       35.0536921392  TIP3      1631            0.0000000000
     22243      1767  TIP3      H2             -1.2211037366       16.4454104885       35.2771162625  TIP3      1631            0.0000000000
     22244      1768  TIP3      OH2           -11.4637892038       12.6557691407       37.6591801461  TIP3      1632            0.0000000000
     22245      1768  TIP3      H1            -11.1926079766       11.8082354797       38.0362560122  TIP3      1632            0.0000000000
     22246      1768  TIP3      H2            -11.3705781827       13.2522200638       38.4322980057  TIP3      1632            0.0000000000
     22247      1769  TIP3      OH2            -6.9366965705       14.7981301728       22.5042901061  TIP3      1633            0.0000000000
     22248      1769  TIP3      H1             -7.7965028429       14.5372188961       22.8591579729  TIP3      1633            0.0000000000
     22249      1769  TIP3      H2             -6.6194192381       14.0063754403       22.0433606112  TIP3      1633            0.0000000000
     22250      1770  TIP3      OH2            -7.7272924035       12.0224203989       34.5708691560  TIP3      1634            0.0000000000
     22251      1770  TIP3      H1             -8.5858617756       12.4965843897       34.5376106276  TIP3      1634            0.0000000000
     22252      1770  TIP3      H2             -7.2582135424       12.4364746386       33.8149991177  TIP3      1634            0.0000000000
     22253      1771  TIP3      OH2            -2.6861598722       14.7143274913       38.0727263225  TIP3      1635            0.0000000000
     22254      1771  TIP3      H1             -1.7520124887       14.5416483762       38.2909995356  TIP3      1635            0.0000000000
     22255      1771  TIP3      H2             -3.1691436358       14.4512818562       38.8781109559  TIP3      1635            0.0000000000
     22256      1772  TIP3      OH2            -7.0324785781        9.6609326063       35.3392657410  TIP3      1636            0.0000000000
     22257      1772  TIP3      H1             -7.1034362923        8.9700176976       34.6468788477  TIP3      1636            0.0000000000
     22258      1772  TIP3      H2             -7.1927005106       10.5114279141       34.8596354183  TIP3      1636            0.0000000000
     22259      1773  TIP3      OH2            -6.7872777197        7.6965099223       33.3972051692  TIP3      1637            0.0000000000
     22260      1773  TIP3      H1             -6.1553434406        8.1773161759       32.8194107100  TIP3      1637            0.0000000000
     22261      1773  TIP3      H2             -7.6084171362        7.8235328541       32.8722054461  TIP3      1637            0.0000000000
     22262      1774  TIP3      OH2            -6.1311512462       13.4578776441       32.9253099932  TIP3      1638            0.0000000000
     22263      1774  TIP3      H1             -5.2863751069       13.9156975511       33.0988581812  TIP3      1638            0.0000000000
     22264      1774  TIP3      H2             -6.6747890864       14.1981632260       32.5833351900  TIP3      1638            0.0000000000
     22265      1775  TIP3      OH2            -1.3723126342       10.7028664034       38.7442245946  TIP3      1639            0.0000000000
     22266      1775  TIP3      H1             -1.1084168806        9.9047009999       38.2468334783  TIP3      1639            0.0000000000
     22267      1775  TIP3      H2             -0.5927844417       11.2717728899       38.6370533067  TIP3      1639            0.0000000000
     22268      1776  TIP3      OH2            -0.0379260183       14.0032683033       37.4250183034  TIP3      1640            0.0000000000
     22269      1776  TIP3      H1             -0.5592070064       14.5097694995       36.7619055922  TIP3      1640            0.0000000000
     22270      1776  TIP3      H2              0.7851821526       13.8311656113       36.9286646254  TIP3      1640            0.0000000000
     22271      1777  TIP3      OH2            -8.8709621589       10.3231772755       37.7473423753  TIP3      1641            0.0000000000
     22272      1777  TIP3      H1             -9.6304691349        9.8908270886       37.3014574712  TIP3      1641            0.0000000000
     22273      1777  TIP3      H2             -8.2371584279       10.4549877833       37.0198486404  TIP3      1641            0.0000000000
     22274      1778  TIP3      OH2            -6.2104981034        5.0330393775       33.3887717513  TIP3      1642            0.0000000000
     22275      1778  TIP3      H1             -6.4993495493        5.9689643281       33.4387805654  TIP3      1642            0.0000000000
     22276      1778  TIP3      H2             -7.0505787791        4.5907678900       33.1831900933  TIP3      1642            0.0000000000
     22277      1779  TIP3      OH2            -5.3085821385        9.3530440408       37.4531514429  TIP3      1643            0.0000000000
     22278      1779  TIP3      H1             -5.9216745527        9.1341417557       38.1689052167  TIP3      1643            0.0000000000
     22279      1779  TIP3      H2             -5.8970585897        9.3162929684       36.6626305966  TIP3      1643            0.0000000000
     22280      1780  TIP3      OH2            -2.8284487214        8.6440420302       36.7824243761  TIP3      1644            0.0000000000
     22281      1780  TIP3      H1             -3.7660420678        8.6877592675       37.0758609523  TIP3      1644            0.0000000000
     22282      1780  TIP3      H2             -2.4034455049        8.1733147180       37.5352618028  TIP3      1644            0.0000000000
     22283      1781  TIP3      OH2            -1.0329650304        7.6999797391       38.5787083176  TIP3      1645            0.0000000000
     22284      1781  TIP3      H1             -0.7968248681        6.7469512818       38.5029583744  TIP3      1645            0.0000000000
     22285      1781  TIP3      H2             -1.0617742146        7.8337869143       39.5422117496  TIP3      1645            0.0000000000
     22286      1782  TIP3      OH2           -11.0632064243        8.2880116360       37.5637424074  TIP3      1646            0.0000000000
     22287      1782  TIP3      H1            -11.3274708612        7.4656361340       37.0941187510  TIP3      1646            0.0000000000
     22288      1782  TIP3      H2            -11.2144078895        8.0685474275       38.5160987581  TIP3      1646            0.0000000000
     22289      1783  TIP3      OH2            -6.4248755072        4.5626496566       36.7911832951  TIP3      1647            0.0000000000
     22290      1783  TIP3      H1             -5.7670831779        3.8555054888       36.9776985711  TIP3      1647            0.0000000000
     22291      1783  TIP3      H2             -6.1984411593        4.6775205790       35.8590339019  TIP3      1647            0.0000000000
     22292      1784  TIP3      OH2            -6.5176299083        5.8637110596       39.1036793583  TIP3      1648            0.0000000000
     22293      1784  TIP3      H1             -6.3870847554        5.3793705965       38.2437060034  TIP3      1648            0.0000000000
     22294      1784  TIP3      H2             -6.8974687230        6.7109048281       38.7923684770  TIP3      1648            0.0000000000
     22295      1785  TIP3      OH2            -6.5788052020       21.9341948372       22.0861684025  TIP3      1649            0.0000000000
     22296      1785  TIP3      H1             -6.2853781318       22.7799880482       22.4395027660  TIP3      1649            0.0000000000
     22297      1785  TIP3      H2             -6.4188672975       22.0538421011       21.1409389591  TIP3      1649            0.0000000000
     22298      1786  TIP3      OH2           -12.6787655436       17.7230264048       21.2609222007  TIP3      1650            0.0000000000
     22299      1786  TIP3      H1            -12.1075017227       17.1627869801       20.7010212748  TIP3      1650            0.0000000000
     22300      1786  TIP3      H2            -12.6186771210       18.5675627896       20.7946833427  TIP3      1650            0.0000000000
     22301      1787  TIP3      OH2           -14.2371847550       22.9160902422       26.4789077577  TIP3      1651            0.0000000000
     22302      1787  TIP3      H1            -14.6795669888       22.4944640902       25.7025612336  TIP3      1651            0.0000000000
     22303      1787  TIP3      H2            -13.9971871130       22.1408901449       27.0210244482  TIP3      1651            0.0000000000
     22304      1788  TIP3      OH2           -13.5255974164       20.8033856887       28.1782775490  TIP3      1652            0.0000000000
     22305      1788  TIP3      H1            -14.3332497844       20.3045451219       28.3835546380  TIP3      1652            0.0000000000
     22306      1788  TIP3      H2            -13.1320385342       20.8801469823       29.0687406419  TIP3      1652            0.0000000000
     22307      1789  TIP3      OH2             4.0954878925       21.1092823232       30.8501632736  TIP3      1653            0.0000000000
     22308      1789  TIP3      H1              4.4545094716       21.6551463381       31.5687970790  TIP3      1653            0.0000000000
     22309      1789  TIP3      H2              3.9304419928       21.8198797965       30.1992694632  TIP3      1653            0.0000000000
     22310      1790  TIP3      OH2             3.6816162147       21.4629261745       33.7085772084  TIP3      1654            0.0000000000
     22311      1790  TIP3      H1              3.4307498789       20.6167415018       33.2587945515  TIP3      1654            0.0000000000
     22312      1790  TIP3      H2              3.9453042717       21.0986349266       34.5751002821  TIP3      1654            0.0000000000
     22313      1791  TIP3      OH2             2.5274976536       17.2457542562       38.9181890361  TIP3      1655            0.0000000000
     22314      1791  TIP3      H1              1.6452848840       17.4924193426       39.2553127139  TIP3      1655            0.0000000000
     22315      1791  TIP3      H2              3.0782576950       18.0332945753       39.1495461031  TIP3      1655            0.0000000000
     22316      1792  TIP3      OH2             4.4198579222       13.8341749972       26.6090047092  TIP3      1656            0.0000000000
     22317      1792  TIP3      H1              3.5426757669       13.5241872931       26.3437681902  TIP3      1656            0.0000000000
     22318      1792  TIP3      H2              4.3886113074       13.8209859594       27.5728414382  TIP3      1656            0.0000000000
     22319      1793  TIP3      OH2             3.8938036328       16.2345010071       30.1641793419  TIP3      1657            0.0000000000
     22320      1793  TIP3      H1              4.6432973300       15.6186504413       30.3292211930  TIP3      1657            0.0000000000
     22321      1793  TIP3      H2              4.3559741259       17.0888380805       30.0233543428  TIP3      1657            0.0000000000
     22322      1794  TIP3      OH2             2.3530884158       19.1160571664       33.1564818533  TIP3      1658            0.0000000000
     22323      1794  TIP3      H1              1.6373730760       19.6063498814       33.5920373587  TIP3      1658            0.0000000000
     22324      1794  TIP3      H2              1.9302821121       18.8632113572       32.3066212624  TIP3      1658            0.0000000000
     22325      1795  TIP3      OH2             3.5809469166       13.9258852611       23.3438941819  TIP3      1659            0.0000000000
     22326      1795  TIP3      H1              3.9658917419       14.3348173788       22.5285548224  TIP3      1659            0.0000000000
     22327      1795  TIP3      H2              3.9209164629       14.5452085902       23.9978012782  TIP3      1659            0.0000000000
     22328      1796  TIP3      OH2             2.0156292105       11.8086386738       26.5762356043  TIP3      1660            0.0000000000
     22329      1796  TIP3      H1              1.5161499603       10.9774946900       26.5948221374  TIP3      1660            0.0000000000
     22330      1796  TIP3      H2              1.7942319088       12.1628327001       27.4761810441  TIP3      1660            0.0000000000
     22331      1797  TIP3      OH2           -13.2766546315       14.2227502382       30.7781280029  TIP3      1661            0.0000000000
     22332      1797  TIP3      H1            -13.3936618332       13.9025843594       29.8576981237  TIP3      1661            0.0000000000
     22333      1797  TIP3      H2            -12.3494680535       13.9285048656       30.9403127887  TIP3      1661            0.0000000000
     22334      1798  TIP3      OH2             2.9538534621       14.0625903552       36.3178840108  TIP3      1662            0.0000000000
     22335      1798  TIP3      H1              3.3837184163       13.1996649599       36.4831247995  TIP3      1662            0.0000000000
     22336      1798  TIP3      H2              3.7073970034       14.6673451768       36.1785501217  TIP3      1662            0.0000000000
     22337      1799  TIP3      OH2             4.1908031782       11.5994036919       37.7537695458  TIP3      1663            0.0000000000
     22338      1799  TIP3      H1              3.3923040312       11.1585667986       37.3991867524  TIP3      1663            0.0000000000
     22339      1799  TIP3      H2              4.9069526205       11.0858828677       37.3127495210  TIP3      1663            0.0000000000
     22340      1800  TIP3      OH2             0.8838564078        9.1587077917       25.6705001518  TIP3      1664            0.0000000000
     22341      1800  TIP3      H1              1.1215384752        8.2072466226       25.6748933122  TIP3      1664            0.0000000000
     22342      1800  TIP3      H2              1.6910422368        9.5321882694       25.3031420150  TIP3      1664            0.0000000000
     22343      1801  TIP3      OH2             2.4204851784       10.3285541082       30.2729583409  TIP3      1665            0.0000000000
     22344      1801  TIP3      H1              3.4152316614       10.4210237389       30.3030707043  TIP3      1665            0.0000000000
     22345      1801  TIP3      H2              2.2016157572       10.2755338587       31.2150311632  TIP3      1665            0.0000000000
     22346      1802  TIP3      OH2             2.5364996163       11.0822029304       33.0812377157  TIP3      1666            0.0000000000
     22347      1802  TIP3      H1              1.6071249743       11.3435023677       33.0863688647  TIP3      1666            0.0000000000
     22348      1802  TIP3      H2              2.9834338609       11.9479573776       32.9713243434  TIP3      1666            0.0000000000
     22349      1803  TIP3      OH2           -13.4532923314        9.3259679831       37.1749605356  TIP3      1667            0.0000000000
     22350      1803  TIP3      H1            -12.5127734075        9.0770389788       37.3075579988  TIP3      1667            0.0000000000
     22351      1803  TIP3      H2            -13.8825019791        8.4601928880       37.0345539857  TIP3      1667            0.0000000000
     22352      1804  TIP3      OH2             5.3065162504        5.7702476037       38.6318899204  TIP3      1668            0.0000000000
     22353      1804  TIP3      H1              4.3969104121        5.4477918723       38.4275407412  TIP3      1668            0.0000000000
     22354      1804  TIP3      H2              5.4894542097        6.3360638429       37.8567087907  TIP3      1668            0.0000000000
     22355      1805  TIP3      OH2             1.8037530666        6.6242871196       25.1137288002  TIP3      1669            0.0000000000
     22356      1805  TIP3      H1              2.1635581486        6.4218780048       26.0090627355  TIP3      1669            0.0000000000
     22357      1805  TIP3      H2              0.8942039226        6.2657329253       25.1113968531  TIP3      1669            0.0000000000
     22358      1806  TIP3      OH2           -12.2035040329        7.7287193455       30.1761684580  TIP3      1670            0.0000000000
     22359      1806  TIP3      H1            -11.8667202481        6.8052826317       30.2125593565  TIP3      1670            0.0000000000
     22360      1806  TIP3      H2            -11.3863545178        8.2572477870       30.2150518775  TIP3      1670            0.0000000000
     22361      1807  TIP3      OH2           -13.7259174444       10.6392372516       30.8024787277  TIP3      1671            0.0000000000
     22362      1807  TIP3      H1            -13.2767686584       10.0928203127       30.1483657773  TIP3      1671            0.0000000000
     22363      1807  TIP3      H2            -13.1636423651       11.4250354803       30.8398852346  TIP3      1671            0.0000000000
     22364      1808  TIP3      OH2             4.3457933817        7.5525229439       36.6743770093  TIP3      1672            0.0000000000
     22365      1808  TIP3      H1              3.5352458935        7.7153216801       37.1879832127  TIP3      1672            0.0000000000
     22366      1808  TIP3      H2              3.9718091171        6.9119310016       36.0404613963  TIP3      1672            0.0000000000
     22367      1809  TIP3      OH2           -13.7051422571        6.6954130377       24.4672935258  TIP3      1673            0.0000000000
     22368      1809  TIP3      H1            -14.5217076493        7.0696536963       24.8383000122  TIP3      1673            0.0000000000
     22369      1809  TIP3      H2            -13.5015981164        7.3662386905       23.7808023044  TIP3      1673            0.0000000000
     22370      1810  TIP3      OH2             0.8761891242       21.9880733538       25.9751657214  TIP3      1674            0.0000000000
     22371      1810  TIP3      H1              1.7440750331       21.6949113424       25.6197268196  TIP3      1674            0.0000000000
     22372      1810  TIP3      H2              1.1446307952       22.4349260480       26.8078771380  TIP3      1674            0.0000000000
     22373      1811  TIP3      OH2           -13.8986481937        5.6488065732       32.9796558278  TIP3      1675            0.0000000000
     22374      1811  TIP3      H1            -14.5883755906        5.3327154948       33.6010707424  TIP3      1675            0.0000000000
     22375      1811  TIP3      H2            -14.1426379714        6.5771379362       32.8330281942  TIP3      1675            0.0000000000
     22376      1812  TIP3      OH2           -11.6157312041       18.6065374840       36.8866353991  TIP3      1676            0.0000000000
     22377      1812  TIP3      H1            -12.5609800774       18.5935390371       36.6567363631  TIP3      1676            0.0000000000
     22378      1812  TIP3      H2            -11.6380411582       18.4740164236       37.8341378092  TIP3      1676            0.0000000000
     22379      1813  TIP3      OH2            -8.5509586352       20.4925423760       34.0456092009  TIP3      1677            0.0000000000
     22380      1813  TIP3      H1             -8.5543348053       21.3554547559       33.5816136661  TIP3      1677            0.0000000000
     22381      1813  TIP3      H2             -7.6538877660       20.1853606530       33.7940570194  TIP3      1677            0.0000000000
     22382      1814  TIP3      OH2            -4.6328679217       21.5346300981       36.3809056430  TIP3      1678            0.0000000000
     22383      1814  TIP3      H1             -4.5091124945       21.2938628755       37.3219649647  TIP3      1678            0.0000000000
     22384      1814  TIP3      H2             -3.7686731557       21.9362727870       36.1707036231  TIP3      1678            0.0000000000
     22385      1815  TIP3      OH2            -2.2330821131       22.9714230614       35.9594451646  TIP3      1679            0.0000000000
     22386      1815  TIP3      H1             -1.4918317343       22.4635445642       35.5990940851  TIP3      1679            0.0000000000
     22387      1815  TIP3      H2             -1.8610798297       23.2722773458       36.8230339745  TIP3      1679            0.0000000000
     22388      1816  TIP3      OH2             3.1729454340        5.3224534890       34.9102169832  TIP3      1680            0.0000000000
     22389      1816  TIP3      H1              2.3618143672        5.6472950311       34.4971693199  TIP3      1680            0.0000000000
     22390      1816  TIP3      H2              3.2553501998        4.4345924136       34.4832950764  TIP3      1680            0.0000000000
     22391      1817  TIP3      OH2           -11.3001108431       22.9811620544       33.3007298208  TIP3      1681            0.0000000000
     22392      1817  TIP3      H1            -12.1706632154       23.3748419529       33.0434286305  TIP3      1681            0.0000000000
     22393      1817  TIP3      H2            -11.2397176351       23.2531473109       34.2274097667  TIP3      1681            0.0000000000
     22394      1818  TIP3      OH2            -8.6906139899       22.8460881027       32.4238067084  TIP3      1682            0.0000000000
     22395      1818  TIP3      H1             -9.6663262582       22.9224174542       32.5504214474  TIP3      1682            0.0000000000
     22396      1818  TIP3      H2             -8.5309046255       23.5303544388       31.7331719939  TIP3      1682            0.0000000000
     22397      1819  TIP3      OH2            -4.2819635745       22.5464669368       31.6636611547  TIP3      1683            0.0000000000
     22398      1819  TIP3      H1             -4.9189410746       23.1958275137       31.3229264865  TIP3      1683            0.0000000000
     22399      1819  TIP3      H2             -3.9530738844       23.0264661856       32.4548470971  TIP3      1683            0.0000000000
     22400      1820  TIP3      OH2            -2.1708037197       21.1730727577       33.1298049413  TIP3      1684            0.0000000000
     22401      1820  TIP3      H1             -2.6545214932       21.4749868964       32.3389512446  TIP3      1684            0.0000000000
     22402      1820  TIP3      H2             -1.3673372242       21.7367949002       33.0204515703  TIP3      1684            0.0000000000
     22403      1821  TIP3      OH2             0.0334591348       22.8786869730       32.8550869896  TIP3      1685            0.0000000000
     22404      1821  TIP3      H1              0.4407458516       23.7632093637       32.8856090735  TIP3      1685            0.0000000000
     22405      1821  TIP3      H2              0.4686907842       22.5123306354       32.0534656083  TIP3      1685            0.0000000000
     22406      1822  TIP3      OH2           -11.8201825259       21.6596732566       30.4626778793  TIP3      1686            0.0000000000
     22407      1822  TIP3      H1            -12.0477021060       21.1894860658       31.2901616285  TIP3      1686            0.0000000000
     22408      1822  TIP3      H2            -10.9514087207       21.2455960263       30.2451723240  TIP3      1686            0.0000000000
     22409      1823  TIP3      OH2            -9.5387445451       20.5145191610       29.5779321726  TIP3      1687            0.0000000000
     22410      1823  TIP3      H1             -9.5009132861       19.5409936028       29.6350721627  TIP3      1687            0.0000000000
     22411      1823  TIP3      H2             -8.5838411818       20.7061683067       29.6886936344  TIP3      1687            0.0000000000
     22412      1824  TIP3      OH2            -6.8524812142       21.0389610859       30.0828257701  TIP3      1688            0.0000000000
     22413      1824  TIP3      H1             -6.3751582564       20.1943991469       30.1391902840  TIP3      1688            0.0000000000
     22414      1824  TIP3      H2             -6.8813293694       21.3326040093       31.0168299859  TIP3      1688            0.0000000000
     22415      1825  TIP3      OH2            -4.2675082588        6.2734887338       29.2831408959  TIP3      1689            0.0000000000
     22416      1825  TIP3      H1             -5.0062554331        5.6859649282       29.5577232519  TIP3      1689            0.0000000000
     22417      1825  TIP3      H2             -3.7001665640        5.6258924738       28.8517417912  TIP3      1689            0.0000000000
     22418      1826  TIP3      OH2             1.7207230176        4.5140304659       29.1617528581  TIP3      1690            0.0000000000
     22419      1826  TIP3      H1              2.2636028827        5.1742542960       28.6629730334  TIP3      1690            0.0000000000
     22420      1826  TIP3      H2              0.8249148431        4.8870028649       29.0005426289  TIP3      1690            0.0000000000
     22421      1827  TIP3      OH2             3.0644884173        5.9540660437       27.3649850829  TIP3      1691            0.0000000000
     22422      1827  TIP3      H1              3.7800479345        5.3471333467       27.0530153360  TIP3      1691            0.0000000000
     22423      1827  TIP3      H2              3.6004680894        6.7559012006       27.5936717660  TIP3      1691            0.0000000000
     22424      1828  TIP3      OH2           -11.1256773106        5.1095612835       27.1186239158  TIP3      1692            0.0000000000
     22425      1828  TIP3      H1            -12.0063665248        5.2588055396       26.7152234611  TIP3      1692            0.0000000000
     22426      1828  TIP3      H2            -10.9232372746        4.1741084746       26.8756926242  TIP3      1692            0.0000000000
     22427      1829  TIP3      OH2           -12.2642876836        4.9019979041       22.5573825050  TIP3      1693            0.0000000000
     22428      1829  TIP3      H1            -11.4757680804        5.3456480315       22.1798571347  TIP3      1693            0.0000000000
     22429      1829  TIP3      H2            -12.5891136051        5.5661967062       23.2008201901  TIP3      1693            0.0000000000
     22430      1830  TIP3      OH2            -6.6922711685        4.7750673718       26.9411923497  TIP3      1694            0.0000000000
     22431      1830  TIP3      H1             -5.7766347600        4.9561793570       26.6841167200  TIP3      1694            0.0000000000
     22432      1830  TIP3      H2             -6.9748300233        5.6339337779       27.2776934890  TIP3      1694            0.0000000000
     22433      1831  TIP3      OH2            -0.8480836050        5.2227298326       28.2258184910  TIP3      1695            0.0000000000
     22434      1831  TIP3      H1             -1.3464473383        5.1830686755       27.4041378536  TIP3      1695            0.0000000000
     22435      1831  TIP3      H2             -1.2672424568        4.4605433017       28.6879854543  TIP3      1695            0.0000000000
     22436      1832  TIP3      OH2            -0.6051168412        5.6814547896       24.1502034407  TIP3      1696            0.0000000000
     22437      1832  TIP3      H1             -1.2555134862        5.6978494341       23.4310318945  TIP3      1696            0.0000000000
     22438      1832  TIP3      H2             -0.6528948339        4.7182134775       24.3697938692  TIP3      1696            0.0000000000
     22439      1833  TIP3      OH2           -12.4440002984       21.1421114252       23.5332292379  TIP3      1697            0.0000000000
     22440      1833  TIP3      H1            -12.9307819672       21.1262694305       22.6850086360  TIP3      1697            0.0000000000
     22441      1833  TIP3      H2            -12.0209883888       22.0149223272       23.4132770066  TIP3      1697            0.0000000000
     22442      1834  TIP3      OH2           -10.3176019289        6.5349232158       21.3470806841  TIP3      1698            0.0000000000
     22443      1834  TIP3      H1             -9.7779946896        6.2446711319       20.6041081094  TIP3      1698            0.0000000000
     22444      1834  TIP3      H2             -9.5894898535        6.9165302332       21.8783166571  TIP3      1698            0.0000000000
     22445      1835  TIP3      OH2            -5.7702474896        6.9056424229       24.1173333366  TIP3      1699            0.0000000000
     22446      1835  TIP3      H1             -5.1531338189        6.6867748381       24.8332100569  TIP3      1699            0.0000000000
     22447      1835  TIP3      H2             -5.4568474546        7.7903954071       23.8927773873  TIP3      1699            0.0000000000
     22448      1836  TIP3      OH2             3.0541194838       21.1496241998       24.8500532980  TIP3      1700            0.0000000000
     22449      1836  TIP3      H1              2.7825993293       20.3927355102       24.2711623448  TIP3      1700            0.0000000000
     22450      1836  TIP3      H2              3.1428230999       21.8713472877       24.1855602079  TIP3      1700            0.0000000000
     22451      1837  TIP3      OH2           -11.5711812125        5.8819642078       36.3932041778  TIP3      1701            0.0000000000
     22452      1837  TIP3      H1            -12.1153542159        5.0743350314       36.3790746477  TIP3      1701            0.0000000000
     22453      1837  TIP3      H2            -10.8757164560        5.6457663519       37.0413126544  TIP3      1701            0.0000000000
     22454      1838  TIP3      OH2            -9.4719861723        5.0989797473       38.3141918132  TIP3      1702            0.0000000000
     22455      1838  TIP3      H1             -8.5753797152        5.1501404199       37.9336883743  TIP3      1702            0.0000000000
     22456      1838  TIP3      H2             -9.4544490946        4.1478777363       38.5498114614  TIP3      1702            0.0000000000
     22457      1839  TIP3      OH2            -0.9072798019        4.7289395268       38.2042495508  TIP3      1703            0.0000000000
     22458      1839  TIP3      H1             -1.2387826980        3.8130764547       38.0558324208  TIP3      1703            0.0000000000
     22459      1839  TIP3      H2              0.0519423457        4.5911194381       38.2325782172  TIP3      1703            0.0000000000
     22460      1840  TIP3      OH2             2.3281241695       20.4544550002       36.5464090442  TIP3      1704            0.0000000000
     22461      1840  TIP3      H1              1.6845674433       20.5344374552       35.8091819959  TIP3      1704            0.0000000000
     22462      1840  TIP3      H2              2.1348312022       21.2695631450       37.0314998565  TIP3      1704            0.0000000000
     22463      1841  TIP3      OH2            17.0422762000       14.6154643228       26.9342136415  TIP3      1705            0.0000000000
     22464      1841  TIP3      H1             17.1399356045       14.9026223645       27.8668446538  TIP3      1705            0.0000000000
     22465      1841  TIP3      H2             16.7865707900       15.4822480084       26.5399921166  TIP3      1705            0.0000000000
     22466      1842  TIP3      OH2            15.3591079539       12.5706084726       29.6131290955  TIP3      1706            0.0000000000
     22467      1842  TIP3      H1             15.5008702236       12.5648306389       30.5805165688  TIP3      1706            0.0000000000
     22468      1842  TIP3      H2             14.7835697653       11.7786056278       29.4815323294  TIP3      1706            0.0000000000
     22469      1843  TIP3      OH2             7.7896872786       13.2212381753       31.5496119308  TIP3      1707            0.0000000000
     22470      1843  TIP3      H1              7.7017965798       12.5439510767       32.2355432453  TIP3      1707            0.0000000000
     22471      1843  TIP3      H2              8.5822651571       13.6752499463       31.8939293357  TIP3      1707            0.0000000000
     22472      1844  TIP3      OH2            18.8441871116       16.1964479938       28.7229884744  TIP3      1708            0.0000000000
     22473      1844  TIP3      H1             17.9321320358       16.5103542428       28.8923923816  TIP3      1708            0.0000000000
     22474      1844  TIP3      H2             19.3668892502       16.9215696380       29.1218176707  TIP3      1708            0.0000000000
     22475      1845  TIP3      OH2             9.3156926479       17.8706772511       30.6708456269  TIP3      1709            0.0000000000
     22476      1845  TIP3      H1              8.8624754663       17.0616947637       30.3736628170  TIP3      1709            0.0000000000
     22477      1845  TIP3      H2             10.1934135165       17.6615202793       30.2515718814  TIP3      1709            0.0000000000
     22478      1846  TIP3      OH2             5.7494354624       11.0886264180       25.5928600688  TIP3      1710            0.0000000000
     22479      1846  TIP3      H1              5.4080927677       11.9947362470       25.4578067219  TIP3      1710            0.0000000000
     22480      1846  TIP3      H2              4.9406072652       10.6404915259       25.8707435814  TIP3      1710            0.0000000000
     22481      1847  TIP3      OH2             6.8719650141       13.5528638894       28.3485653654  TIP3      1711            0.0000000000
     22482      1847  TIP3      H1              6.9096543309       12.5721658860       28.4624685187  TIP3      1711            0.0000000000
     22483      1847  TIP3      H2              6.7300168520       13.6970874711       27.4050061198  TIP3      1711            0.0000000000
     22484      1848  TIP3      OH2            16.5861645326       21.7953508145       28.4956612363  TIP3      1712            0.0000000000
     22485      1848  TIP3      H1             17.0240383006       21.1504915728       27.9063213926  TIP3      1712            0.0000000000
     22486      1848  TIP3      H2             16.0714149837       21.1905205736       29.0472822169  TIP3      1712            0.0000000000
     22487      1849  TIP3      OH2            13.4769839269       16.4867007030       31.3826450744  TIP3      1713            0.0000000000
     22488      1849  TIP3      H1             14.0622125652       16.1862452955       30.6405030683  TIP3      1713            0.0000000000
     22489      1849  TIP3      H2             14.1599048469       16.9008798634       31.9439230375  TIP3      1713            0.0000000000
     22490      1850  TIP3      OH2            22.9435248792        7.7160484617       30.7177658994  TIP3      1714            0.0000000000
     22491      1850  TIP3      H1             22.8005338031        8.0706571584       31.6229084522  TIP3      1714            0.0000000000
     22492      1850  TIP3      H2             23.9330521851        7.6948112691       30.6761244437  TIP3      1714            0.0000000000
     22493      1851  TIP3      OH2            17.6789106633       10.5621428940       31.1842517694  TIP3      1715            0.0000000000
     22494      1851  TIP3      H1             17.5067108734        9.6157288596       31.3057023031  TIP3      1715            0.0000000000
     22495      1851  TIP3      H2             17.5405813184       10.6720472157       30.2161541756  TIP3      1715            0.0000000000
     22496      1852  TIP3      OH2            10.4126621209        8.0521701325       27.8395376060  TIP3      1716            0.0000000000
     22497      1852  TIP3      H1             10.4174309341        8.9700487388       27.4913638649  TIP3      1716            0.0000000000
     22498      1852  TIP3      H2              9.9131202134        7.5843001875       27.1374073060  TIP3      1716            0.0000000000
     22499      1853  TIP3      OH2            18.2185442070        8.4163851959       26.3615499727  TIP3      1717            0.0000000000
     22500      1853  TIP3      H1             18.2704905877        8.1557917027       27.3006390425  TIP3      1717            0.0000000000
     22501      1853  TIP3      H2             17.9049965657        9.3352139548       26.4166192434  TIP3      1717            0.0000000000
     22502      1854  TIP3      OH2             7.1622033777       10.9629927462       29.0412341978  TIP3      1718            0.0000000000
     22503      1854  TIP3      H1              7.7760082789       10.5344140341       29.6655782720  TIP3      1718            0.0000000000
     22504      1854  TIP3      H2              7.2515784769       10.3494510869       28.2756523967  TIP3      1718            0.0000000000
     22505      1855  TIP3      OH2            10.9909141269       12.3985845772       28.4383649468  TIP3      1719            0.0000000000
     22506      1855  TIP3      H1             11.5820403035       11.8979619922       29.0233852179  TIP3      1719            0.0000000000
     22507      1855  TIP3      H2             10.8225881703       11.7488473189       27.7125511595  TIP3      1719            0.0000000000
     22508      1856  TIP3      OH2            22.4210143437        8.6341845329       33.2357902443  TIP3      1720            0.0000000000
     22509      1856  TIP3      H1             21.9306992263        9.4871268724       33.1461694947  TIP3      1720            0.0000000000
     22510      1856  TIP3      H2             22.9262047909        8.8339618435       34.0403716341  TIP3      1720            0.0000000000
     22511      1857  TIP3      OH2             9.3788677528        7.4781321220       32.2523267481  TIP3      1721            0.0000000000
     22512      1857  TIP3      H1              8.9785483026        8.0360009180       31.5486200090  TIP3      1721            0.0000000000
     22513      1857  TIP3      H2              8.7549918328        7.6604774214       32.9921235341  TIP3      1721            0.0000000000
     22514      1858  TIP3      OH2            16.3715788106       17.0151881551       25.9028277735  TIP3      1722            0.0000000000
     22515      1858  TIP3      H1             16.9416577244       17.7307243293       25.5860978919  TIP3      1722            0.0000000000
     22516      1858  TIP3      H2             15.5474147030       17.5498466767       26.0005294297  TIP3      1722            0.0000000000
     22517      1859  TIP3      OH2            11.3425653500       15.1678111709       32.0071292558  TIP3      1723            0.0000000000
     22518      1859  TIP3      H1             10.8618282057       15.9611725548       32.3228191557  TIP3      1723            0.0000000000
     22519      1859  TIP3      H2             12.1207053728       15.6422407770       31.6299901455  TIP3      1723            0.0000000000
     22520      1860  TIP3      OH2            19.7232243128        8.1266016252       29.1872356721  TIP3      1724            0.0000000000
     22521      1860  TIP3      H1             18.9633293639        7.5231947571       29.2642570411  TIP3      1724            0.0000000000
     22522      1860  TIP3      H2             19.4624542370        8.8644369257       29.7651248885  TIP3      1724            0.0000000000
     22523      1861  TIP3      OH2             8.9325395646        9.3006318354       30.1645770312  TIP3      1725            0.0000000000
     22524      1861  TIP3      H1              9.5021786061        9.9448492876       30.6489043347  TIP3      1725            0.0000000000
     22525      1861  TIP3      H2              9.4926427125        9.0164647367       29.4190702833  TIP3      1725            0.0000000000
     22526      1862  TIP3      OH2            10.1553577887       17.3655778305       33.1929587750  TIP3      1726            0.0000000000
     22527      1862  TIP3      H1              9.8770289204       17.7709253453       32.3416350350  TIP3      1726            0.0000000000
     22528      1862  TIP3      H2              9.2827733342       17.3114081048       33.6639505335  TIP3      1726            0.0000000000
     22529      1863  TIP3      OH2             5.7069645951       16.9026362900       24.1102264244  TIP3      1727            0.0000000000
     22530      1863  TIP3      H1              5.0004441832       16.5643275840       23.5120315585  TIP3      1727            0.0000000000
     22531      1863  TIP3      H2              6.1194062701       17.5955508540       23.5844729015  TIP3      1727            0.0000000000
     22532      1864  TIP3      OH2            19.0407355256       18.7906560185       29.3979642068  TIP3      1728            0.0000000000
     22533      1864  TIP3      H1             18.2625524395       18.9241818439       29.9855721451  TIP3      1728            0.0000000000
     22534      1864  TIP3      H2             19.7203131108       18.5901021737       30.0654799637  TIP3      1728            0.0000000000
     22535      1865  TIP3      OH2            19.5929335060        6.9600193498       32.0177628722  TIP3      1729            0.0000000000
     22536      1865  TIP3      H1             18.7236923844        7.0466708787       31.5783468007  TIP3      1729            0.0000000000
     22537      1865  TIP3      H2             20.2209024595        7.1548106101       31.3033992996  TIP3      1729            0.0000000000
     22538      1866  TIP3      OH2            12.4501223074        4.5377770731       30.0831132758  TIP3      1730            0.0000000000
     22539      1866  TIP3      H1             12.0647135701        3.6727129800       30.3175356843  TIP3      1730            0.0000000000
     22540      1866  TIP3      H2             11.6264592100        5.0863700740       30.1561287277  TIP3      1730            0.0000000000
     22541      1867  TIP3      OH2            17.9070281426       20.1633229179       26.8222244488  TIP3      1731            0.0000000000
     22542      1867  TIP3      H1             18.2479927978       19.4024987157       27.3228706919  TIP3      1731            0.0000000000
     22543      1867  TIP3      H2             18.7045116321       20.7521714778       26.8316827811  TIP3      1731            0.0000000000
     22544      1868  TIP3      OH2            20.0098330923       18.2029652552       25.8891326339  TIP3      1732            0.0000000000
     22545      1868  TIP3      H1             19.6789746354       17.5273586111       25.2608653322  TIP3      1732            0.0000000000
     22546      1868  TIP3      H2             19.7042751514       17.8569686700       26.7447559408  TIP3      1732            0.0000000000
     22547      1869  TIP3      OH2            20.6474525167       16.4300292359       34.5678992162  TIP3      1733            0.0000000000
     22548      1869  TIP3      H1             20.8861367812       15.7238861264       33.9548021080  TIP3      1733            0.0000000000
     22549      1869  TIP3      H2             20.8585849278       17.2213128763       34.0410028626  TIP3      1733            0.0000000000
     22550      1870  TIP3      OH2            14.9400380488       13.0472247087       24.2880599422  TIP3      1734            0.0000000000
     22551      1870  TIP3      H1             14.4831358742       13.9083296372       24.1545719631  TIP3      1734            0.0000000000
     22552      1870  TIP3      H2             15.8112743344       13.1984664704       23.8429033051  TIP3      1734            0.0000000000
     22553      1871  TIP3      OH2            22.7057190361       13.2302584678       33.0855057768  TIP3      1735            0.0000000000
     22554      1871  TIP3      H1             21.9156400511       13.7076390714       32.7374933092  TIP3      1735            0.0000000000
     22555      1871  TIP3      H2             23.3081337397       13.2135806407       32.3094723137  TIP3      1735            0.0000000000
     22556      1872  TIP3      OH2            19.1491832530       14.2546159642       25.2783787137  TIP3      1736            0.0000000000
     22557      1872  TIP3      H1             18.4118701710       14.5042978380       25.8979491026  TIP3      1736            0.0000000000
     22558      1872  TIP3      H2             19.7032757903       13.6971030935       25.8621860673  TIP3      1736            0.0000000000
     22559      1873  TIP3      OH2            19.0040457345       12.4468616773       34.3771560151  TIP3      1737            0.0000000000
     22560      1873  TIP3      H1             19.3471248679       13.3579225732       34.4174742281  TIP3      1737            0.0000000000
     22561      1873  TIP3      H2             18.2390624341       12.5668458186       33.7890953352  TIP3      1737            0.0000000000
     22562      1874  TIP3      OH2            10.4065060088       14.5221555885       26.9841746615  TIP3      1738            0.0000000000
     22563      1874  TIP3      H1              9.6399322413       14.2686215773       26.4321015699  TIP3      1738            0.0000000000
     22564      1874  TIP3      H2             10.5785716316       13.7076083646       27.5068419429  TIP3      1738            0.0000000000
     22565      1875  TIP3      OH2            11.6957771427       17.5889331687       29.6248255772  TIP3      1739            0.0000000000
     22566      1875  TIP3      H1             11.9386411025       17.3395516874       28.7222284349  TIP3      1739            0.0000000000
     22567      1875  TIP3      H2             12.4373062897       17.2573895942       30.1800239271  TIP3      1739            0.0000000000
     22568      1876  TIP3      OH2            10.4111830354       12.9245529800       31.0155046682  TIP3      1740            0.0000000000
     22569      1876  TIP3      H1             10.3399166341       13.1215033012       30.0644815396  TIP3      1740            0.0000000000
     22570      1876  TIP3      H2             10.8461476355       13.7452609622       31.3440325205  TIP3      1740            0.0000000000
     22571      1877  TIP3      OH2            17.2721711216       18.8974360442       31.3626778755  TIP3      1741            0.0000000000
     22572      1877  TIP3      H1             16.7367773119       19.3552546230       32.0242221083  TIP3      1741            0.0000000000
     22573      1877  TIP3      H2             17.0302317241       17.9621489671       31.5354769358  TIP3      1741            0.0000000000
     22574      1878  TIP3      OH2            11.7407124625       17.7037558724       35.3588855151  TIP3      1742            0.0000000000
     22575      1878  TIP3      H1             11.0246061098       18.1695371645       35.8570884944  TIP3      1742            0.0000000000
     22576      1878  TIP3      H2             11.2758441784       17.5538093190       34.5006403947  TIP3      1742            0.0000000000
     22577      1879  TIP3      OH2            17.3934946446       13.4688302402       23.2926573990  TIP3      1743            0.0000000000
     22578      1879  TIP3      H1             18.1460163439       13.8303004840       23.8161260296  TIP3      1743            0.0000000000
     22579      1879  TIP3      H2             17.6976540592       13.5735742708       22.3741562335  TIP3      1743            0.0000000000
     22580      1880  TIP3      OH2             8.5490653562       13.7472276642       34.1745851101  TIP3      1744            0.0000000000
     22581      1880  TIP3      H1              8.9017644096       14.5639398306       34.5568340292  TIP3      1744            0.0000000000
     22582      1880  TIP3      H2              7.9797948349       13.4443847845       34.9051637094  TIP3      1744            0.0000000000
     22583      1881  TIP3      OH2            14.6702575498       19.0654196417       25.7785208492  TIP3      1745            0.0000000000
     22584      1881  TIP3      H1             14.9870117732       19.8030280674       26.3117929715  TIP3      1745            0.0000000000
     22585      1881  TIP3      H2             14.6659541739       19.4373831429       24.8739995278  TIP3      1745            0.0000000000
     22586      1882  TIP3      OH2             9.8808577762       19.2746379748       36.4770721434  TIP3      1746            0.0000000000
     22587      1882  TIP3      H1              9.8264343841       19.8265867692       35.6660416709  TIP3      1746            0.0000000000
     22588      1882  TIP3      H2              8.9275500435       19.1087824001       36.6345667890  TIP3      1746            0.0000000000
     22589      1883  TIP3      OH2            21.2816863134        4.3705076990       23.2604338163  TIP3      1747            0.0000000000
     22590      1883  TIP3      H1             20.3619308114        4.4814437234       23.5840120724  TIP3      1747            0.0000000000
     22591      1883  TIP3      H2             21.5841808449        5.2892553323       23.1883671254  TIP3      1747            0.0000000000
     22592      1884  TIP3      OH2             8.8743224056       13.1768272180       25.1229145246  TIP3      1748            0.0000000000
     22593      1884  TIP3      H1              9.2202180781       13.8797343863       24.5269493501  TIP3      1748            0.0000000000
     22594      1884  TIP3      H2              8.0028891385       13.0722532276       24.7287652835  TIP3      1748            0.0000000000
     22595      1885  TIP3      OH2            23.2482110615       20.4817669754       20.3209592431  TIP3      1749            0.0000000000
     22596      1885  TIP3      H1             23.3088244303       21.2006021447       21.0037917553  TIP3      1749            0.0000000000
     22597      1885  TIP3      H2             23.9907078312       19.9045893523       20.5411013472  TIP3      1749            0.0000000000
     22598      1886  TIP3      OH2             5.6682675068       16.0523063461       33.6696465227  TIP3      1750            0.0000000000
     22599      1886  TIP3      H1              5.2994417316       16.1476235776       32.7783918113  TIP3      1750            0.0000000000
     22600      1886  TIP3      H2              5.8882044737       15.1014035756       33.7104492263  TIP3      1750            0.0000000000
     22601      1887  TIP3      OH2             5.4060786949       18.5756330462       30.1495423408  TIP3      1751            0.0000000000
     22602      1887  TIP3      H1              6.3419960262       18.8094478696       30.2377647648  TIP3      1751            0.0000000000
     22603      1887  TIP3      H2              4.9595136373       19.3881107225       30.4632363926  TIP3      1751            0.0000000000
     22604      1888  TIP3      OH2            23.5365271606       19.4710310820       36.0817063161  TIP3      1752            0.0000000000
     22605      1888  TIP3      H1             23.4272622779       18.5083982889       36.1417205815  TIP3      1752            0.0000000000
     22606      1888  TIP3      H2             22.6881993862       19.7580592275       36.4907040691  TIP3      1752            0.0000000000
     22607      1889  TIP3      OH2            14.1750709018       18.7518347309       35.0000553780  TIP3      1753            0.0000000000
     22608      1889  TIP3      H1             14.5140124672       19.2873257395       35.7418660772  TIP3      1753            0.0000000000
     22609      1889  TIP3      H2             13.3056260198       18.4329797029       35.3354350641  TIP3      1753            0.0000000000
     22610      1890  TIP3      OH2            15.3755272982       22.6949323562       24.2442991075  TIP3      1754            0.0000000000
     22611      1890  TIP3      H1             15.0539284615       22.9782069979       23.3729002609  TIP3      1754            0.0000000000
     22612      1890  TIP3      H2             14.9845486539       23.3726191508       24.8315240015  TIP3      1754            0.0000000000
     22613      1891  TIP3      OH2             8.6130923799       21.3269088950       26.9063041574  TIP3      1755            0.0000000000
     22614      1891  TIP3      H1              8.7843694329       21.0474860773       27.8309632832  TIP3      1755            0.0000000000
     22615      1891  TIP3      H2              7.9408777844       20.6578691804       26.6327142974  TIP3      1755            0.0000000000
     22616      1892  TIP3      OH2            17.6753910648       22.0947378981       21.5600491874  TIP3      1756            0.0000000000
     22617      1892  TIP3      H1             17.9993877036       22.3513181487       20.6644879779  TIP3      1756            0.0000000000
     22618      1892  TIP3      H2             18.5090344928       21.8548040472       21.9803617065  TIP3      1756            0.0000000000
     22619      1893  TIP3      OH2            17.9178478247       22.0794907974       24.5690602929  TIP3      1757            0.0000000000
     22620      1893  TIP3      H1             17.0025928344       22.1977367983       24.2229655848  TIP3      1757            0.0000000000
     22621      1893  TIP3      H2             17.7851078151       21.3540026391       25.2088236916  TIP3      1757            0.0000000000
     22622      1894  TIP3      OH2            20.3481770943       10.7561049880       36.5880706170  TIP3      1758            0.0000000000
     22623      1894  TIP3      H1             19.8101834377       11.1566014793       35.8865328414  TIP3      1758            0.0000000000
     22624      1894  TIP3      H2             20.3254027545        9.8219589648       36.3188244403  TIP3      1758            0.0000000000
     22625      1895  TIP3      OH2             7.8701848483       17.3689790529       34.5122736859  TIP3      1759            0.0000000000
     22626      1895  TIP3      H1              7.9601678063       17.0466053305       35.4393186969  TIP3      1759            0.0000000000
     22627      1895  TIP3      H2              7.0192226418       16.9462367902       34.2610157656  TIP3      1759            0.0000000000
     22628      1896  TIP3      OH2            10.1620791670        5.7689188530       30.4334828637  TIP3      1760            0.0000000000
     22629      1896  TIP3      H1              9.2976737600        5.8601496641       29.9790019038  TIP3      1760            0.0000000000
     22630      1896  TIP3      H2             10.0399408821        6.4107876352       31.1680993193  TIP3      1760            0.0000000000
     22631      1897  TIP3      OH2            15.2245769441        5.4703629803       33.6393867969  TIP3      1761            0.0000000000
     22632      1897  TIP3      H1             15.5837801985        5.0745515709       34.4617068823  TIP3      1761            0.0000000000
     22633      1897  TIP3      H2             14.2562387412        5.4430604511       33.8029369196  TIP3      1761            0.0000000000
     22634      1898  TIP3      OH2            17.3291772305        9.6590582086       34.7672705931  TIP3      1762            0.0000000000
     22635      1898  TIP3      H1             16.7701742081        9.2265223129       35.4624302287  TIP3      1762            0.0000000000
     22636      1898  TIP3      H2             17.6325170999       10.4710575184       35.1949122336  TIP3      1762            0.0000000000
     22637      1899  TIP3      OH2            10.4819637144       10.5293466052       32.0014002268  TIP3      1763            0.0000000000
     22638      1899  TIP3      H1              9.7295964607       10.6183583213       32.6346798932  TIP3      1763            0.0000000000
     22639      1899  TIP3      H2             10.4958013629       11.4498108618       31.6346748654  TIP3      1763            0.0000000000
     22640      1900  TIP3      OH2            10.1064205287       10.5074441614       26.7532704658  TIP3      1764            0.0000000000
     22641      1900  TIP3      H1              9.1599547749       10.7391655389       26.6875821187  TIP3      1764            0.0000000000
     22642      1900  TIP3      H2             10.3311003055       10.3457317901       25.8132587892  TIP3      1764            0.0000000000
     22643      1901  TIP3      OH2            15.5044072604       11.0805764438       26.0765235033  TIP3      1765            0.0000000000
     22644      1901  TIP3      H1             15.1264851960       11.8408085020       25.5663879532  TIP3      1765            0.0000000000
     22645      1901  TIP3      H2             16.3029210851       10.9016041974       25.5256617948  TIP3      1765            0.0000000000
     22646      1902  TIP3      OH2            14.9511717754       11.6608651252       36.6327478389  TIP3      1766            0.0000000000
     22647      1902  TIP3      H1             14.5136800292       10.8409635968       36.9468652492  TIP3      1766            0.0000000000
     22648      1902  TIP3      H2             15.7424343706       11.6294678962       37.2117016485  TIP3      1766            0.0000000000
     22649      1903  TIP3      OH2            17.4133065885       11.1720863672       28.3908097719  TIP3      1767            0.0000000000
     22650      1903  TIP3      H1             17.2262326145       12.1183627700       28.3050922314  TIP3      1767            0.0000000000
     22651      1903  TIP3      H2             16.5842374800       10.8107382735       28.0346220261  TIP3      1767            0.0000000000
     22652      1904  TIP3      OH2             8.1303442110       10.6146787675       33.3310330564  TIP3      1768            0.0000000000
     22653      1904  TIP3      H1              8.0725877869       11.0214441940       34.2040956025  TIP3      1768            0.0000000000
     22654      1904  TIP3      H2              7.7267749928        9.7364061589       33.4900393180  TIP3      1768            0.0000000000
     22655      1905  TIP3      OH2            10.9189566307        8.0267924249       20.3922577145  TIP3      1769            0.0000000000
     22656      1905  TIP3      H1             11.5630513617        7.7026282356       21.0347084429  TIP3      1769            0.0000000000
     22657      1905  TIP3      H2             10.1508579087        8.1901350315       20.9515977171  TIP3      1769            0.0000000000
     22658      1906  TIP3      OH2             4.8228777924        7.9311984904       27.5739672267  TIP3      1770            0.0000000000
     22659      1906  TIP3      H1              5.6330933343        7.8422559447       28.1028057363  TIP3      1770            0.0000000000
     22660      1906  TIP3      H2              5.1580458634        7.9413603730       26.6575500822  TIP3      1770            0.0000000000
     22661      1907  TIP3      OH2            16.2221462383       12.6353041694       32.4811130857  TIP3      1771            0.0000000000
     22662      1907  TIP3      H1             16.7936811322       11.9789429708       32.0253425731  TIP3      1771            0.0000000000
     22663      1907  TIP3      H2             15.5839744808       12.0585473577       32.9639096130  TIP3      1771            0.0000000000
     22664      1908  TIP3      OH2            13.2824182008        8.0845220987       27.8962268407  TIP3      1772            0.0000000000
     22665      1908  TIP3      H1             12.3172756779        7.8913031835       27.9611322615  TIP3      1772            0.0000000000
     22666      1908  TIP3      H2             13.6622442586        7.4398643170       28.5389697383  TIP3      1772            0.0000000000
     22667      1909  TIP3      OH2             7.5212716647        9.4221102804       26.8881363509  TIP3      1773            0.0000000000
     22668      1909  TIP3      H1              7.0333824329        9.9228545794       26.1989507216  TIP3      1773            0.0000000000
     22669      1909  TIP3      H2              7.7922833433        8.6091107674       26.4281244219  TIP3      1773            0.0000000000
     22670      1910  TIP3      OH2            10.8563317910        9.6864685270       24.2622965110  TIP3      1774            0.0000000000
     22671      1910  TIP3      H1             11.8144617759        9.6630015711       24.5035285326  TIP3      1774            0.0000000000
     22672      1910  TIP3      H2             10.7724243848       10.5596228987       23.8611292777  TIP3      1774            0.0000000000
     22673      1911  TIP3      OH2            17.3075402680        7.2923010374       30.3887203675  TIP3      1775            0.0000000000
     22674      1911  TIP3      H1             16.6792177164        7.4061750313       31.1432661186  TIP3      1775            0.0000000000
     22675      1911  TIP3      H2             16.9001024518        6.5398444898       29.9237657927  TIP3      1775            0.0000000000
     22676      1912  TIP3      OH2            20.3664178712       23.2855969993       37.4322723060  TIP3      1776            0.0000000000
     22677      1912  TIP3      H1             20.6368829001       23.3036392316       36.4832403324  TIP3      1776            0.0000000000
     22678      1912  TIP3      H2             21.2287523415       23.4226188742       37.8610671766  TIP3      1776            0.0000000000
     22679      1913  TIP3      OH2             8.1494029060       16.0071098651       36.8279434927  TIP3      1777            0.0000000000
     22680      1913  TIP3      H1              8.8395060912       16.1054208797       37.5170253817  TIP3      1777            0.0000000000
     22681      1913  TIP3      H2              7.3878844572       15.6669984088       37.3490967807  TIP3      1777            0.0000000000
     22682      1914  TIP3      OH2            13.8684996494       10.3313842513       29.5307683234  TIP3      1778            0.0000000000
     22683      1914  TIP3      H1             13.6948992664        9.5622711456       28.9566062776  TIP3      1778            0.0000000000
     22684      1914  TIP3      H2             13.5871949449        9.9233100721       30.3858385378  TIP3      1778            0.0000000000
     22685      1915  TIP3      OH2             8.8209532433        6.7313529121       25.8624056554  TIP3      1779            0.0000000000
     22686      1915  TIP3      H1              8.2503120500        6.0759758311       26.3203724051  TIP3      1779            0.0000000000
     22687      1915  TIP3      H2              9.4473540793        6.1412111252       25.4145608588  TIP3      1779            0.0000000000
     22688      1916  TIP3      OH2            12.7303588785        9.2110096168       31.6253380287  TIP3      1780            0.0000000000
     22689      1916  TIP3      H1             11.8489436144        9.6600995724       31.6695950218  TIP3      1780            0.0000000000
     22690      1916  TIP3      H2             13.2622822858        9.8087836308       32.1743386477  TIP3      1780            0.0000000000
     22691      1917  TIP3      OH2            13.3492819930       15.2861262860       24.1405624071  TIP3      1781            0.0000000000
     22692      1917  TIP3      H1             13.0139746099       15.7369654075       23.3545544007  TIP3      1781            0.0000000000
     22693      1917  TIP3      H2             12.8826184608       15.7928356371       24.8481229670  TIP3      1781            0.0000000000
     22694      1918  TIP3      OH2            20.3403080129       14.3154541312       32.4647131624  TIP3      1782            0.0000000000
     22695      1918  TIP3      H1             20.6391577214       15.1505683463       32.0235856266  TIP3      1782            0.0000000000
     22696      1918  TIP3      H2             19.6081373039       14.0853854583       31.8564755316  TIP3      1782            0.0000000000
     22697      1919  TIP3      OH2            14.3204685970       15.6841601588       34.6196051039  TIP3      1783            0.0000000000
     22698      1919  TIP3      H1             14.6802649562       15.4767893734       35.4917385424  TIP3      1783            0.0000000000
     22699      1919  TIP3      H2             14.1081847896       16.6268591272       34.7065009492  TIP3      1783            0.0000000000
     22700      1920  TIP3      OH2            17.5548884835       10.9444594994       24.3536562912  TIP3      1784            0.0000000000
     22701      1920  TIP3      H1             18.4773639134       10.6621791426       24.2107805164  TIP3      1784            0.0000000000
     22702      1920  TIP3      H2             17.5503664152       11.8212565903       23.9147828552  TIP3      1784            0.0000000000
     22703      1921  TIP3      OH2             9.0386546390       15.2441969282       29.6195169785  TIP3      1785            0.0000000000
     22704      1921  TIP3      H1              8.9702300231       15.1822674336       28.6551421818  TIP3      1785            0.0000000000
     22705      1921  TIP3      H2              8.6322257154       14.4135861889       29.9020863099  TIP3      1785            0.0000000000
     22706      1922  TIP3      OH2             5.3223669018       13.4544241717       35.0084878890  TIP3      1786            0.0000000000
     22707      1922  TIP3      H1              5.4295260138       12.6777584505       35.5748609315  TIP3      1786            0.0000000000
     22708      1922  TIP3      H2              4.7381338123       13.1335603313       34.2971352444  TIP3      1786            0.0000000000
     22709      1923  TIP3      OH2            12.7652508390       13.1267253197       36.5388736662  TIP3      1787            0.0000000000
     22710      1923  TIP3      H1             12.3133799137       12.5539866083       35.9010856928  TIP3      1787            0.0000000000
     22711      1923  TIP3      H2             13.6648089515       12.7198714036       36.5379334907  TIP3      1787            0.0000000000
     22712      1924  TIP3      OH2            17.5409783942       18.4878735576       35.1969277652  TIP3      1788            0.0000000000
     22713      1924  TIP3      H1             16.8182692855       18.6912513688       34.5791804465  TIP3      1788            0.0000000000
     22714      1924  TIP3      H2             17.2055706887       18.9021831282       36.0197112955  TIP3      1788            0.0000000000
     22715      1925  TIP3      OH2            22.7375022103       10.7424476763       23.3715653577  TIP3      1789            0.0000000000
     22716      1925  TIP3      H1             21.8608770536       10.3257484058       23.4943871510  TIP3      1789            0.0000000000
     22717      1925  TIP3      H2             22.4863079313       11.6693844548       23.2389909721  TIP3      1789            0.0000000000
     22718      1926  TIP3      OH2            23.1962929941       16.6156879441       35.9176822621  TIP3      1790            0.0000000000
     22719      1926  TIP3      H1             22.2308562717       16.6364172559       35.7496081564  TIP3      1790            0.0000000000
     22720      1926  TIP3      H2             23.5596254806       16.4450040016       35.0243684784  TIP3      1790            0.0000000000
     22721      1927  TIP3      OH2            21.7356597733       19.3912451932       24.0374652389  TIP3      1791            0.0000000000
     22722      1927  TIP3      H1             21.1073756615       19.0202112162       24.6962927344  TIP3      1791            0.0000000000
     22723      1927  TIP3      H2             21.7718970837       18.6929041311       23.3812178202  TIP3      1791            0.0000000000
     22724      1928  TIP3      OH2            18.6232796562       13.8840881606       30.4104626309  TIP3      1792            0.0000000000
     22725      1928  TIP3      H1             17.7247267964       14.2591169592       30.3926713411  TIP3      1792            0.0000000000
     22726      1928  TIP3      H2             19.1195867113       14.5233673773       29.8584483938  TIP3      1792            0.0000000000
     22727      1929  TIP3      OH2            10.6444165653       18.3893317890       26.9946311249  TIP3      1793            0.0000000000
     22728      1929  TIP3      H1             10.8949642487       19.2454552841       26.5653425606  TIP3      1793            0.0000000000
     22729      1929  TIP3      H2              9.6849044272       18.3550434093       26.8468129098  TIP3      1793            0.0000000000
     22730      1930  TIP3      OH2            12.3157274483       16.3013031509       26.5037012323  TIP3      1794            0.0000000000
     22731      1930  TIP3      H1             11.9516309627       17.2124788910       26.5570193285  TIP3      1794            0.0000000000
     22732      1930  TIP3      H2             11.4817271885       15.8104601905       26.6906428593  TIP3      1794            0.0000000000
     22733      1931  TIP3      OH2            12.9912195219       20.5109773438       33.1256710152  TIP3      1795            0.0000000000
     22734      1931  TIP3      H1             13.6878548327       21.1646837067       32.9061859950  TIP3      1795            0.0000000000
     22735      1931  TIP3      H2             13.4219291494       20.0110088184       33.8512027010  TIP3      1795            0.0000000000
     22736      1932  TIP3      OH2            11.1980969175       20.8823299440       26.0183509599  TIP3      1796            0.0000000000
     22737      1932  TIP3      H1             10.2429608633       21.0430007270       26.1598011248  TIP3      1796            0.0000000000
     22738      1932  TIP3      H2             11.5011634330       21.8086832181       26.0893947049  TIP3      1796            0.0000000000
     22739      1933  TIP3      OH2            16.0659518054       16.5873085171       32.5169973961  TIP3      1797            0.0000000000
     22740      1933  TIP3      H1             15.6144432681       16.0494387951       33.1948464654  TIP3      1797            0.0000000000
     22741      1933  TIP3      H2             16.2834750367       15.9191080580       31.8366554538  TIP3      1797            0.0000000000
     22742      1934  TIP3      OH2            19.3223331895       21.0925934100       34.7755947647  TIP3      1798            0.0000000000
     22743      1934  TIP3      H1             18.5739123425       20.5269373836       34.5098173492  TIP3      1798            0.0000000000
     22744      1934  TIP3      H2             19.3808959821       21.7174073821       34.0241467144  TIP3      1798            0.0000000000
     22745      1935  TIP3      OH2            23.3551896212       22.3678219815       22.2541570469  TIP3      1799            0.0000000000
     22746      1935  TIP3      H1             24.0910271418       22.9629840348       22.5077006156  TIP3      1799            0.0000000000
     22747      1935  TIP3      H2             22.5947496728       22.9777826445       22.3020535024  TIP3      1799            0.0000000000
     22748      1936  TIP3      OH2             7.5729074281        8.1138537738       34.4292272024  TIP3      1800            0.0000000000
     22749      1936  TIP3      H1              6.8743614512        8.6326721557       34.8677262533  TIP3      1800            0.0000000000
     22750      1936  TIP3      H2              7.5820190614        7.3008786871       34.9685491158  TIP3      1800            0.0000000000
     22751      1937  TIP3      OH2            19.8159432322       16.4465426023       23.7527985106  TIP3      1801            0.0000000000
     22752      1937  TIP3      H1             19.6216543875       15.5969757233       24.1993940186  TIP3      1801            0.0000000000
     22753      1937  TIP3      H2             20.7769706631       16.3521582315       23.5894958180  TIP3      1801            0.0000000000
     22754      1938  TIP3      OH2             7.0334963219       20.0710654969       32.5568938082  TIP3      1802            0.0000000000
     22755      1938  TIP3      H1              7.5434265896       19.2462092927       32.5607321717  TIP3      1802            0.0000000000
     22756      1938  TIP3      H2              7.1970302780       20.3851699269       33.4586137262  TIP3      1802            0.0000000000
     22757      1939  TIP3      OH2            11.5092446138       17.7341915087       22.4611857554  TIP3      1803            0.0000000000
     22758      1939  TIP3      H1             11.9368733152       18.6025052127       22.5313474691  TIP3      1803            0.0000000000
     22759      1939  TIP3      H2             10.5823918106       17.9763332338       22.6589040636  TIP3      1803            0.0000000000
     22760      1940  TIP3      OH2             9.2322374544       15.4064929547       23.4577021548  TIP3      1804            0.0000000000
     22761      1940  TIP3      H1              8.3141505926       15.7301600888       23.4599250309  TIP3      1804            0.0000000000
     22762      1940  TIP3      H2              9.6005679194       15.9947334781       22.7723124986  TIP3      1804            0.0000000000
     22763      1941  TIP3      OH2            16.4977317271        7.7241692888       32.9497944798  TIP3      1805            0.0000000000
     22764      1941  TIP3      H1             16.8363665892        8.2539824988       33.6979718871  TIP3      1805            0.0000000000
     22765      1941  TIP3      H2             15.9418919048        7.0396324475       33.3798359979  TIP3      1805            0.0000000000
     22766      1942  TIP3      OH2            16.2858117983        7.3916145354       24.4776930097  TIP3      1806            0.0000000000
     22767      1942  TIP3      H1             16.3866590739        8.2771247977       24.8469351818  TIP3      1806            0.0000000000
     22768      1942  TIP3      H2             17.0588571633        6.9629786962       24.8918975395  TIP3      1806            0.0000000000
     22769      1943  TIP3      OH2            14.9383641560       19.9405421906       23.1023993998  TIP3      1807            0.0000000000
     22770      1943  TIP3      H1             13.9611726561       20.0444972314       23.0936514687  TIP3      1807            0.0000000000
     22771      1943  TIP3      H2             15.2088761024       20.8694169668       23.0615006185  TIP3      1807            0.0000000000
     22772      1944  TIP3      OH2            13.3735959518        9.4856874259       25.5676456762  TIP3      1808            0.0000000000
     22773      1944  TIP3      H1             14.1128074756       10.0993310202       25.7774405360  TIP3      1808            0.0000000000
     22774      1944  TIP3      H2             13.3640042448        8.9056325944       26.3625424561  TIP3      1808            0.0000000000
     22775      1945  TIP3      OH2            14.9353789616       10.7937008954       33.9988094337  TIP3      1809            0.0000000000
     22776      1945  TIP3      H1             14.8808654775       11.1135871444       34.9218173247  TIP3      1809            0.0000000000
     22777      1945  TIP3      H2             15.6257161853       10.1061875374       34.0591156124  TIP3      1809            0.0000000000
     22778      1946  TIP3      OH2            14.7782335480        6.1628854198       26.4111215666  TIP3      1810            0.0000000000
     22779      1946  TIP3      H1             14.1855049278        6.8966545052       26.6420121828  TIP3      1810            0.0000000000
     22780      1946  TIP3      H2             15.2352658889        6.5832238004       25.6543809082  TIP3      1810            0.0000000000
     22781      1947  TIP3      OH2            12.2262095937       20.4265096353       23.3411485275  TIP3      1811            0.0000000000
     22782      1947  TIP3      H1             12.0698555194       21.2931971503       22.8916196732  TIP3      1811            0.0000000000
     22783      1947  TIP3      H2             11.7545220463       20.5845035645       24.1902966191  TIP3      1811            0.0000000000
     22784      1948  TIP3      OH2            10.4377038429        7.1198464759       23.1485215664  TIP3      1812            0.0000000000
     22785      1948  TIP3      H1             10.3029497426        7.9840448869       23.5938458726  TIP3      1812            0.0000000000
     22786      1948  TIP3      H2             11.4062137590        7.0038396496       23.3047655649  TIP3      1812            0.0000000000
     22787      1949  TIP3      OH2            20.4510699484        8.0018487354       35.1439292651  TIP3      1813            0.0000000000
     22788      1949  TIP3      H1             19.6184958553        7.7099295586       34.7578016559  TIP3      1813            0.0000000000
     22789      1949  TIP3      H2             20.9896153703        8.1563598925       34.3513360549  TIP3      1813            0.0000000000
     22790      1950  TIP3      OH2            20.2721865458       12.2374374049       28.9427043232  TIP3      1814            0.0000000000
     22791      1950  TIP3      H1             19.6001061847       12.7156111266       29.4850275042  TIP3      1814            0.0000000000
     22792      1950  TIP3      H2             20.6448701436       11.6162415113       29.6070004221  TIP3      1814            0.0000000000
     22793      1951  TIP3      OH2             8.8329429900       17.8948403478       21.9901491503  TIP3      1815            0.0000000000
     22794      1951  TIP3      H1              8.7455799148       18.8191270990       21.6767175124  TIP3      1815            0.0000000000
     22795      1951  TIP3      H2              8.9382128468       17.4003293296       21.1501215554  TIP3      1815            0.0000000000
     22796      1952  TIP3      OH2            20.4890198612       21.5236667042       30.9409105933  TIP3      1816            0.0000000000
     22797      1952  TIP3      H1             20.6493726311       22.3183959453       30.3888309834  TIP3      1816            0.0000000000
     22798      1952  TIP3      H2             20.9777555253       20.8931372356       30.4013124611  TIP3      1816            0.0000000000
     22799      1953  TIP3      OH2             7.6131936605        5.3761722881       29.6916518137  TIP3      1817            0.0000000000
     22800      1953  TIP3      H1              7.4638909991        5.2151271949       28.7295386846  TIP3      1817            0.0000000000
     22801      1953  TIP3      H2              7.4046986588        4.4829937174       30.0545906530  TIP3      1817            0.0000000000
     22802      1954  TIP3      OH2             6.9864360332       19.3468595993       26.0582198928  TIP3      1818            0.0000000000
     22803      1954  TIP3      H1              6.0504526628       19.2678595297       26.2752811740  TIP3      1818            0.0000000000
     22804      1954  TIP3      H2              6.8968265475       19.6320610978       25.1261482482  TIP3      1818            0.0000000000
     22805      1955  TIP3      OH2             5.9345036765       22.2080654388       36.8325695448  TIP3      1819            0.0000000000
     22806      1955  TIP3      H1              6.6970338322       22.0215182476       37.4276185429  TIP3      1819            0.0000000000
     22807      1955  TIP3      H2              5.5082344545       21.3302931076       36.8840503486  TIP3      1819            0.0000000000
     22808      1956  TIP3      OH2            10.7758064061       21.0059523341       38.4106397330  TIP3      1820            0.0000000000
     22809      1956  TIP3      H1             11.6630385451       20.6175360532       38.5278066565  TIP3      1820            0.0000000000
     22810      1956  TIP3      H2             10.4845170816       20.5195111563       37.6132526541  TIP3      1820            0.0000000000
     22811      1957  TIP3      OH2            16.9405866976       19.7676625055       37.5287772665  TIP3      1821            0.0000000000
     22812      1957  TIP3      H1             16.6912031713       18.8278407397       37.7350181504  TIP3      1821            0.0000000000
     22813      1957  TIP3      H2             17.8512613418       19.8081849805       37.9046802851  TIP3      1821            0.0000000000
     22814      1958  TIP3      OH2             5.6862695156       15.7362494631       37.9075594368  TIP3      1822            0.0000000000
     22815      1958  TIP3      H1              5.1815389045       14.9272920943       38.0928905778  TIP3      1822            0.0000000000
     22816      1958  TIP3      H2              5.2179695127       16.0909198396       37.1177325578  TIP3      1822            0.0000000000
     22817      1959  TIP3      OH2            12.4873974932       15.8287856322       37.2639808696  TIP3      1823            0.0000000000
     22818      1959  TIP3      H1             12.4380450563       16.4133077809       36.4784927848  TIP3      1823            0.0000000000
     22819      1959  TIP3      H2             12.5835113603       14.9326959510       36.8625148943  TIP3      1823            0.0000000000
     22820      1960  TIP3      OH2            18.0455835078       15.6961907081       35.3068223429  TIP3      1824            0.0000000000
     22821      1960  TIP3      H1             18.9029899229       16.1512389175       35.1435957286  TIP3      1824            0.0000000000
     22822      1960  TIP3      H2             17.4687446052       16.4764641609       35.3262010464  TIP3      1824            0.0000000000
     22823      1961  TIP3      OH2             7.3859021869       12.7866171124       37.5200021909  TIP3      1825            0.0000000000
     22824      1961  TIP3      H1              7.5705043761       11.9966947470       38.0607590998  TIP3      1825            0.0000000000
     22825      1961  TIP3      H2              7.5897215852       13.4881657125       38.1674198942  TIP3      1825            0.0000000000
     22826      1962  TIP3      OH2            10.7526496441       12.0846175859       34.4168989066  TIP3      1826            0.0000000000
     22827      1962  TIP3      H1             10.0245364748       12.7143488197       34.2549292130  TIP3      1826            0.0000000000
     22828      1962  TIP3      H2             11.4455606921       12.4469413144       33.8186571216  TIP3      1826            0.0000000000
     22829      1963  TIP3      OH2            16.1527824872       14.7797648146       38.1830348698  TIP3      1827            0.0000000000
     22830      1963  TIP3      H1             16.6942876516       14.2169736459       37.5968045954  TIP3      1827            0.0000000000
     22831      1963  TIP3      H2             15.7689804567       14.1458999300       38.8147189536  TIP3      1827            0.0000000000
     22832      1964  TIP3      OH2            11.6612244105        9.8044448236       35.3485458508  TIP3      1828            0.0000000000
     22833      1964  TIP3      H1             11.7221447601        9.1492165935       34.6181233552  TIP3      1828            0.0000000000
     22834      1964  TIP3      H2             11.4149074008       10.6386744755       34.8668630713  TIP3      1828            0.0000000000
     22835      1965  TIP3      OH2            11.8040977399        7.5814741674       33.5652871550  TIP3      1829            0.0000000000
     22836      1965  TIP3      H1             12.3673306629        8.0008575674       32.8831631444  TIP3      1829            0.0000000000
     22837      1965  TIP3      H2             10.9501859522        7.5743448987       33.0852868829  TIP3      1829            0.0000000000
     22838      1966  TIP3      OH2            12.8569751366       13.4042790752       33.3614457620  TIP3      1830            0.0000000000
     22839      1966  TIP3      H1             13.7438863046       13.7677754600       33.2354190388  TIP3      1830            0.0000000000
     22840      1966  TIP3      H2             12.3307641807       14.1507297931       32.9908285936  TIP3      1830            0.0000000000
     22841      1967  TIP3      OH2            16.9805791349       10.9090871052       38.2470600007  TIP3      1831            0.0000000000
     22842      1967  TIP3      H1             16.9784583632       10.1951927889       38.9282442977  TIP3      1831            0.0000000000
     22843      1967  TIP3      H2             17.8137155894       11.3388343327       38.4748730738  TIP3      1831            0.0000000000
     22844      1968  TIP3      OH2            18.8691740950       14.0661255368       37.3501157355  TIP3      1832            0.0000000000
     22845      1968  TIP3      H1             18.4895136758       14.6488734370       36.6485503491  TIP3      1832            0.0000000000
     22846      1968  TIP3      H2             19.7127806359       13.7992901664       36.9410063348  TIP3      1832            0.0000000000
     22847      1969  TIP3      OH2            10.0043830124       10.1288487818       37.5660285823  TIP3      1833            0.0000000000
     22848      1969  TIP3      H1              9.1323080413        9.7567235856       37.3126000991  TIP3      1833            0.0000000000
     22849      1969  TIP3      H2             10.5309826820        9.9995998012       36.7484875170  TIP3      1833            0.0000000000
     22850      1970  TIP3      OH2            12.5308373224        5.0595648028       33.3714943681  TIP3      1834            0.0000000000
     22851      1970  TIP3      H1             12.1511849642        5.9546520128       33.5210661200  TIP3      1834            0.0000000000
     22852      1970  TIP3      H2             11.7326810730        4.5630312605       33.1099315599  TIP3      1834            0.0000000000
     22853      1971  TIP3      OH2            13.4166379927        9.3936336483       37.4287217165  TIP3      1835            0.0000000000
     22854      1971  TIP3      H1             12.7717049282        9.1827209170       38.1369901250  TIP3      1835            0.0000000000
     22855      1971  TIP3      H2             12.8102654886        9.4239866291       36.6509130415  TIP3      1835            0.0000000000
     22856      1972  TIP3      OH2            15.6188595864        8.2469087443       36.3219179265  TIP3      1836            0.0000000000
     22857      1972  TIP3      H1             14.7650762588        8.4773556906       36.7389688855  TIP3      1836            0.0000000000
     22858      1972  TIP3      H2             16.1148680512        7.8279747831       37.0684655387  TIP3      1836            0.0000000000
     22859      1973  TIP3      OH2            17.1551595646        7.1966812563       38.2530636492  TIP3      1837            0.0000000000
     22860      1973  TIP3      H1             17.4035689459        6.2577824865       38.4032179931  TIP3      1837            0.0000000000
     22861      1973  TIP3      H2             17.3481362292        7.6367921886       39.1051917789  TIP3      1837            0.0000000000
     22862      1974  TIP3      OH2             7.5264596977        8.5118765869       37.5317559672  TIP3      1838            0.0000000000
     22863      1974  TIP3      H1              7.4141591547        7.5741288422       37.2989796773  TIP3      1838            0.0000000000
     22864      1974  TIP3      H2              7.6945299870        8.4434001692       38.5037561231  TIP3      1838            0.0000000000
     22865      1975  TIP3      OH2            12.1760177330        4.6505868581       36.0760410605  TIP3      1839            0.0000000000
     22866      1975  TIP3      H1             12.7802225604        3.9051222545       36.2113222938  TIP3      1839            0.0000000000
     22867      1975  TIP3      H2             12.2600421598        4.7780107156       35.1116194539  TIP3      1839            0.0000000000
     22868      1976  TIP3      OH2            12.2609805999        5.8899338713       39.3062486544  TIP3      1840            0.0000000000
     22869      1976  TIP3      H1             12.3246435727        5.3765965247       38.4842004625  TIP3      1840            0.0000000000
     22870      1976  TIP3      H2             12.0550333945        6.7702407507       38.9302604042  TIP3      1840            0.0000000000
     22871      1977  TIP3      OH2            12.4102491061       23.0029813569       22.4506572071  TIP3      1841            0.0000000000
     22872      1977  TIP3      H1             13.2307549354       22.8187369921       21.9386790245  TIP3      1841            0.0000000000
     22873      1977  TIP3      H2             12.5595403775       23.9383364576       22.6686504506  TIP3      1841            0.0000000000
     22874      1978  TIP3      OH2             4.8150107641       22.6786057531       26.1619443464  TIP3      1842            0.0000000000
     22875      1978  TIP3      H1              4.1816950817       22.0336258610       25.7835138011  TIP3      1842            0.0000000000
     22876      1978  TIP3      H2              5.1855771858       22.1397791857       26.8927619464  TIP3      1842            0.0000000000
     22877      1979  TIP3      OH2             5.4043172433       20.9207909645       28.1475130629  TIP3      1843            0.0000000000
     22878      1979  TIP3      H1              4.7295636572       20.2656516172       28.3824915354  TIP3      1843            0.0000000000
     22879      1979  TIP3      H2              5.7945027563       21.1205565083       29.0257499694  TIP3      1843            0.0000000000
     22880      1980  TIP3      OH2            23.5463357751       22.4476714702       30.7351649635  TIP3      1844            0.0000000000
     22881      1980  TIP3      H1             23.1926466763       22.0257395531       31.5315927657  TIP3      1844            0.0000000000
     22882      1980  TIP3      H2             24.0245181276       23.2068462878       31.0893605303  TIP3      1844            0.0000000000
     22883      1981  TIP3      OH2            22.6542472646       21.3980758039       33.7456119780  TIP3      1845            0.0000000000
     22884      1981  TIP3      H1             22.2844108598       20.5863667117       33.3262241604  TIP3      1845            0.0000000000
     22885      1981  TIP3      H2             23.0976364324       20.9791989657       34.5058542082  TIP3      1845            0.0000000000
     22886      1982  TIP3      OH2            21.3126760746       17.0225694902       38.9444363391  TIP3      1846            0.0000000000
     22887      1982  TIP3      H1             20.4463470664       17.1929922298       39.3731206948  TIP3      1846            0.0000000000
     22888      1982  TIP3      H2             21.6954540824       17.9262862874       38.9228479752  TIP3      1846            0.0000000000
     22889      1983  TIP3      OH2            22.3901119570       15.6788415115       23.9099785964  TIP3      1847            0.0000000000
     22890      1983  TIP3      H1             23.3300246833       15.9704460247       23.9518389443  TIP3      1847            0.0000000000
     22891      1983  TIP3      H2             22.3989592256       15.0297307859       24.6482903902  TIP3      1847            0.0000000000
     22892      1984  TIP3      OH2            22.7979119713       13.5815999296       25.8952385040  TIP3      1848            0.0000000000
     22893      1984  TIP3      H1             22.0174867036       13.0791510474       26.2105710703  TIP3      1848            0.0000000000
     22894      1984  TIP3      H2             23.2195141466       13.7969611114       26.7506488269  TIP3      1848            0.0000000000
     22895      1985  TIP3      OH2            23.9913318150       15.5349285870       29.6665082797  TIP3      1849            0.0000000000
     22896      1985  TIP3      H1             23.2907157417       15.4524671950       30.3425006153  TIP3      1849            0.0000000000
     22897      1985  TIP3      H2             23.6164006302       16.2645976766       29.1601416086  TIP3      1849            0.0000000000
     22898      1986  TIP3      OH2            21.4554345043       19.0950944800       33.2798636101  TIP3      1850            0.0000000000
     22899      1986  TIP3      H1             20.5547199750       19.4542955065       33.2336060196  TIP3      1850            0.0000000000
     22900      1986  TIP3      H2             21.4600380887       18.4831635458       32.5098433935  TIP3      1850            0.0000000000
     22901      1987  TIP3      OH2            20.5755690558       12.0119221852       26.3973300771  TIP3      1851            0.0000000000
     22902      1987  TIP3      H1             19.6329527687       11.8405897926       26.2921166202  TIP3      1851            0.0000000000
     22903      1987  TIP3      H2             20.5932676299       12.0045213939       27.3903348157  TIP3      1851            0.0000000000
     22904      1988  TIP3      OH2             5.6620466641       14.3081728936       30.6507874577  TIP3      1852            0.0000000000
     22905      1988  TIP3      H1              5.8187020456       13.9987048233       29.7290295079  TIP3      1852            0.0000000000
     22906      1988  TIP3      H2              6.5436369366       14.0446906035       31.0092209727  TIP3      1852            0.0000000000
     22907      1989  TIP3      OH2            21.6878259628       13.7660252880       36.2580327092  TIP3      1853            0.0000000000
     22908      1989  TIP3      H1             21.9888994679       12.8464998338       36.1319459615  TIP3      1853            0.0000000000
     22909      1989  TIP3      H2             22.4613960040       14.2552908401       35.9327102535  TIP3      1853            0.0000000000
     22910      1990  TIP3      OH2            22.9673596674       11.0578511428       36.2733430853  TIP3      1854            0.0000000000
     22911      1990  TIP3      H1             22.0679269021       10.8642249431       36.6139121518  TIP3      1854            0.0000000000
     22912      1990  TIP3      H2             23.5070660903       10.5231589816       36.9003685823  TIP3      1854            0.0000000000
     22913      1991  TIP3      OH2            20.2969209850       10.1738959083       24.4836218537  TIP3      1855            0.0000000000
     22914      1991  TIP3      H1             20.3721345998        9.2624594147       24.8456740215  TIP3      1855            0.0000000000
     22915      1991  TIP3      H2             20.6891392350       10.7270041916       25.1929553771  TIP3      1855            0.0000000000
     22916      1992  TIP3      OH2            21.3045853953       10.3754152922       30.5301963021  TIP3      1856            0.0000000000
     22917      1992  TIP3      H1             22.2901552502       10.4717466298       30.6101622436  TIP3      1856            0.0000000000
     22918      1992  TIP3      H2             21.0695841693       10.5001518721       31.4733401300  TIP3      1856            0.0000000000
     22919      1993  TIP3      OH2            21.1246716354       11.0392900336       33.1068275776  TIP3      1857            0.0000000000
     22920      1993  TIP3      H1             20.2318385942       11.2965584061       33.4200201199  TIP3      1857            0.0000000000
     22921      1993  TIP3      H2             21.5621222834       11.9164581407       33.1867683555  TIP3      1857            0.0000000000
     22922      1994  TIP3      OH2             5.7441416244        9.9439105727       36.3387132523  TIP3      1858            0.0000000000
     22923      1994  TIP3      H1              6.5626106892        9.6414719868       36.7999374387  TIP3      1858            0.0000000000
     22924      1994  TIP3      H2              5.1991712345        9.1439756819       36.5122106166  TIP3      1858            0.0000000000
     22925      1995  TIP3      OH2            23.6003229950        5.4726871767       38.1973178215  TIP3      1859            0.0000000000
     22926      1995  TIP3      H1             23.9980845668        4.6536826868       37.8365483100  TIP3      1859            0.0000000000
     22927      1995  TIP3      H2             23.6527973560        6.0652828669       37.4237387498  TIP3      1859            0.0000000000
     22928      1996  TIP3      OH2            20.8665740321        7.5782605716       25.0870284519  TIP3      1860            0.0000000000
     22929      1996  TIP3      H1             20.9813167307        7.1899507743       25.9724685992  TIP3      1860            0.0000000000
     22930      1996  TIP3      H2             20.0611836133        7.1200444804       24.7807194339  TIP3      1860            0.0000000000
     22931      1997  TIP3      OH2             6.5875901288        7.7330968354       30.6047146946  TIP3      1861            0.0000000000
     22932      1997  TIP3      H1              6.9284635713        6.8316082387       30.3876344557  TIP3      1861            0.0000000000
     22933      1997  TIP3      H2              7.3288073821        8.3197595141       30.3641650077  TIP3      1861            0.0000000000
     22934      1998  TIP3      OH2             4.9877152370       10.8963162534       30.4629882551  TIP3      1862            0.0000000000
     22935      1998  TIP3      H1              5.7825136267       10.8584028784       29.8821887984  TIP3      1862            0.0000000000
     22936      1998  TIP3      H2              5.3403854863       11.4013756229       31.1980033946  TIP3      1862            0.0000000000
     22937      1999  TIP3      OH2            22.8574853124        7.5323228343       36.5092838315  TIP3      1863            0.0000000000
     22938      1999  TIP3      H1             22.1818896498        7.7513589617       37.1779569660  TIP3      1863            0.0000000000
     22939      1999  TIP3      H2             22.2953045341        7.0408838405       35.8777584829  TIP3      1863            0.0000000000
     22940      2000  TIP3      OH2            22.2723869672        7.0186633795       21.2625076505  TIP3      1864            0.0000000000
     22941      2000  TIP3      H1             22.3699041231        6.1066909949       20.9896549262  TIP3      1864            0.0000000000
     22942      2000  TIP3      H2             22.7607493369        7.4830289471       20.5533644440  TIP3      1864            0.0000000000
     22943      2001  TIP3      OH2             5.2976241048        7.0961697812       24.8485336096  TIP3      1865            0.0000000000
     22944      2001  TIP3      H1              4.7394693435        6.3146777400       24.7427409268  TIP3      1865            0.0000000000
     22945      2001  TIP3      H2              6.1516266957        6.7132647135       24.5731018281  TIP3      1865            0.0000000000
     22946      2002  TIP3      OH2            19.8312067247       21.9371346450       27.0914981759  TIP3      1866            0.0000000000
     22947      2002  TIP3      H1             20.4989196964       22.0213600717       26.3814257921  TIP3      1866            0.0000000000
     22948      2002  TIP3      H2             20.2006739521       22.4719100095       27.8205044993  TIP3      1866            0.0000000000
     22949      2003  TIP3      OH2             5.0986111610        5.4504304427       32.9785803325  TIP3      1867            0.0000000000
     22950      2003  TIP3      H1              4.5745207747        5.4624140319       33.8057328745  TIP3      1867            0.0000000000
     22951      2003  TIP3      H2              4.7969452390        6.2380427428       32.4933088026  TIP3      1867            0.0000000000
     22952      2004  TIP3      OH2             7.2536524265       18.7677558567       37.0163038956  TIP3      1868            0.0000000000
     22953      2004  TIP3      H1              6.3766604808       19.0816772245       36.7297421006  TIP3      1868            0.0000000000
     22954      2004  TIP3      H2              7.0974754239       17.8226787898       37.1261321596  TIP3      1868            0.0000000000
     22955      2005  TIP3      OH2            10.4328224203       20.7047772980       34.1312279873  TIP3      1869            0.0000000000
     22956      2005  TIP3      H1             10.3411808823       21.4267124689       33.4795944454  TIP3      1869            0.0000000000
     22957      2005  TIP3      H2             11.3280133966       20.3976274349       33.8945632298  TIP3      1869            0.0000000000
     22958      2006  TIP3      OH2            14.3448144456       21.4484438509       36.2811521173  TIP3      1870            0.0000000000
     22959      2006  TIP3      H1             14.4445500005       21.2334483806       37.2305161384  TIP3      1870            0.0000000000
     22960      2006  TIP3      H2             15.2200763401       21.8199483692       36.0836257511  TIP3      1870            0.0000000000
     22961      2007  TIP3      OH2            16.8755747976       22.9000147314       35.8149821482  TIP3      1871            0.0000000000
     22962      2007  TIP3      H1             17.5645801107       22.2837807896       35.5309995746  TIP3      1871            0.0000000000
     22963      2007  TIP3      H2             17.1907157845       23.1683982420       36.7004789938  TIP3      1871            0.0000000000
     22964      2008  TIP3      OH2            21.5411185785        5.0526260815       34.7995315847  TIP3      1872            0.0000000000
     22965      2008  TIP3      H1             20.8568326954        5.4645417256       34.2513974399  TIP3      1872            0.0000000000
     22966      2008  TIP3      H2             21.5925664603        4.1551729240       34.4132976958  TIP3      1872            0.0000000000
     22967      2009  TIP3      OH2             7.6440627981       23.2220779753       33.2149344174  TIP3      1873            0.0000000000
     22968      2009  TIP3      H1              6.9472993788       23.9128047194       33.2302169114  TIP3      1873            0.0000000000
     22969      2009  TIP3      H2              7.8504420705       23.0934534432       34.1527930777  TIP3      1873            0.0000000000
     22970      2010  TIP3      OH2            10.0932753363       22.7716341926       32.2594026339  TIP3      1874            0.0000000000
     22971      2010  TIP3      H1              9.1148167648       22.8663890910       32.3600491053  TIP3      1874            0.0000000000
     22972      2010  TIP3      H2             10.2594239705       23.4990470207       31.6234447037  TIP3      1874            0.0000000000
     22973      2011  TIP3      OH2            14.6050425337       22.3997721737       31.7217759119  TIP3      1875            0.0000000000
     22974      2011  TIP3      H1             13.8348850554       22.9409494731       31.4998360308  TIP3      1875            0.0000000000
     22975      2011  TIP3      H2             15.0310571666       22.9890276669       32.3842127323  TIP3      1875            0.0000000000
     22976      2012  TIP3      OH2            16.6897787754       21.1320625078       33.1560957521  TIP3      1876            0.0000000000
     22977      2012  TIP3      H1             16.2128608849       21.3885055479       32.3436256258  TIP3      1876            0.0000000000
     22978      2012  TIP3      H2             17.4062186309       21.7960197560       33.0961925343  TIP3      1876            0.0000000000
     22979      2013  TIP3      OH2            18.9827293642       22.8959744478       32.6723746340  TIP3      1877            0.0000000000
     22980      2013  TIP3      H1             19.1178072545       23.7720248281       32.2559438464  TIP3      1877            0.0000000000
     22981      2013  TIP3      H2             19.5252429805       22.3368866209       32.0654642389  TIP3      1877            0.0000000000
     22982      2014  TIP3      OH2             7.0102700790       21.5526703106       30.2632955175  TIP3      1878            0.0000000000
     22983      2014  TIP3      H1              6.7923850771       21.1200025538       31.1198687320  TIP3      1878            0.0000000000
     22984      2014  TIP3      H2              7.9045766761       21.1749188785       30.0986586616  TIP3      1878            0.0000000000
     22985      2015  TIP3      OH2             9.2542217436       20.3422254639       29.4427498899  TIP3      1879            0.0000000000
     22986      2015  TIP3      H1              9.3390310538       19.4020390155       29.6918003374  TIP3      1879            0.0000000000
     22987      2015  TIP3      H2             10.1277992396       20.6714130176       29.7625019352  TIP3      1879            0.0000000000
     22988      2016  TIP3      OH2            11.6804726503       20.8203764312       30.3992025457  TIP3      1880            0.0000000000
     22989      2016  TIP3      H1             12.1947717202       20.0071489634       30.2549597340  TIP3      1880            0.0000000000
     22990      2016  TIP3      H2             11.8345975524       20.9579199659       31.3498454774  TIP3      1880            0.0000000000
     22991      2017  TIP3      OH2            14.4311901777        6.0146490993       29.1079108525  TIP3      1881            0.0000000000
     22992      2017  TIP3      H1             13.7851915109        5.3303993310       29.4054265854  TIP3      1881            0.0000000000
     22993      2017  TIP3      H2             14.6917590531        5.6999859855       28.2119162372  TIP3      1881            0.0000000000
     22994      2018  TIP3      OH2            20.6009493960        4.5634034627       29.2180242224  TIP3      1882            0.0000000000
     22995      2018  TIP3      H1             21.1799595530        5.2231070158       28.7897220454  TIP3      1882            0.0000000000
     22996      2018  TIP3      H2             19.7295703587        4.7357314846       28.7850127273  TIP3      1882            0.0000000000
     22997      2019  TIP3      OH2            22.1215216029        5.9602569951       27.1612355612  TIP3      1883            0.0000000000
     22998      2019  TIP3      H1             22.5386827599        5.2297900101       26.6539991097  TIP3      1883            0.0000000000
     22999      2019  TIP3      H2             22.9294166371        6.4784105580       27.3287077995  TIP3      1883            0.0000000000
     23000      2020  TIP3      OH2             7.3254052601        4.8248082253       27.0453982594  TIP3      1884            0.0000000000
     23001      2020  TIP3      H1              6.4226391087        4.6740093787       26.6903884528  TIP3      1884            0.0000000000
     23002      2020  TIP3      H2              7.7660351885        4.0090292553       26.7065169363  TIP3      1884            0.0000000000
     23003      2021  TIP3      OH2             6.6692673307        5.0701183536       23.2686278489  TIP3      1885            0.0000000000
     23004      2021  TIP3      H1              6.9935085280        5.7489156726       22.6459807604  TIP3      1885            0.0000000000
     23005      2021  TIP3      H2              5.9488826991        4.6495581571       22.7486912081  TIP3      1885            0.0000000000
     23006      2022  TIP3      OH2            11.4117477666        4.6501144739       26.6897273545  TIP3      1886            0.0000000000
     23007      2022  TIP3      H1             12.2951654494        4.6945176106       26.2974229762  TIP3      1886            0.0000000000
     23008      2022  TIP3      H2             11.5081187411        5.0468172711       27.5700177823  TIP3      1886            0.0000000000
     23009      2023  TIP3      OH2            18.1044500374        5.2185251520       28.1965081909  TIP3      1887            0.0000000000
     23010      2023  TIP3      H1             18.0313902167        4.8756538388       27.2914797335  TIP3      1887            0.0000000000
     23011      2023  TIP3      H2             17.4068548388        4.6670796676       28.6109866971  TIP3      1887            0.0000000000
     23012      2024  TIP3      OH2            18.5168511077        4.8868558846       24.2582179892  TIP3      1888            0.0000000000
     23013      2024  TIP3      H1             18.1445912111        4.8524333609       23.3571207013  TIP3      1888            0.0000000000
     23014      2024  TIP3      H2             18.0604226618        4.0971773645       24.6368713165  TIP3      1888            0.0000000000
     23015      2025  TIP3      OH2             6.2656384851       20.7418621036       23.6351768287  TIP3      1889            0.0000000000
     23016      2025  TIP3      H1              5.4875391356       20.7520425372       23.0519499718  TIP3      1889            0.0000000000
     23017      2025  TIP3      H2              6.6724400519       21.5669027911       23.3178759881  TIP3      1889            0.0000000000
     23018      2026  TIP3      OH2             8.4874366111        6.2809181871       21.6198697769  TIP3      1890            0.0000000000
     23019      2026  TIP3      H1              8.4269948915        5.3172338602       21.4579363368  TIP3      1890            0.0000000000
     23020      2026  TIP3      H2              9.1652058089        6.3992836537       22.3191341624  TIP3      1890            0.0000000000
     23021      2027  TIP3      OH2            13.1411867714        7.1070806221       23.1691031869  TIP3      1891            0.0000000000
     23022      2027  TIP3      H1             13.8436450518        7.0171836924       22.4633827024  TIP3      1891            0.0000000000
     23023      2027  TIP3      H2             13.4874078212        7.8423172545       23.6915886890  TIP3      1891            0.0000000000
     23024      2028  TIP3      OH2            14.9308228284       22.5752605723       21.5380471331  TIP3      1892            0.0000000000
     23025      2028  TIP3      H1             15.9181416756       22.5064496939       21.4949886113  TIP3      1892            0.0000000000
     23026      2028  TIP3      H2             14.6935758087       21.8507971885       20.9138871433  TIP3      1892            0.0000000000
     23027      2029  TIP3      OH2            21.5774395580       21.9734721417       25.0095418734  TIP3      1893            0.0000000000
     23028      2029  TIP3      H1             21.6320004491       21.1582769685       24.4591859409  TIP3      1893            0.0000000000
     23029      2029  TIP3      H2             20.9373627549       22.5413131230       24.5189525674  TIP3      1893            0.0000000000
     23030      2030  TIP3      OH2             7.3004253118        5.7707827171       36.2283771328  TIP3      1894            0.0000000000
     23031      2030  TIP3      H1              6.7989268825        4.9844729357       36.5059755321  TIP3      1894            0.0000000000
     23032      2030  TIP3      H2              8.1220116171        5.6497082133       36.7613828296  TIP3      1894            0.0000000000
     23033      2031  TIP3      OH2             9.2146500591        5.3668056126       38.1829634704  TIP3      1895            0.0000000000
     23034      2031  TIP3      H1              9.9546576665        4.8183468704       37.8565105598  TIP3      1895            0.0000000000
     23035      2031  TIP3      H2              8.7821398415        4.7392454152       38.8050110523  TIP3      1895            0.0000000000
     23036      2032  TIP3      OH2            17.7238741528        4.6150165554       38.3599394998  TIP3      1896            0.0000000000
     23037      2032  TIP3      H1             17.9029173142        4.1950120585       39.2366335336  TIP3      1896            0.0000000000
     23038      2032  TIP3      H2             18.5857445679        4.4446696278       37.9345849561  TIP3      1896            0.0000000000
     23039      2033  TIP3      OH2            21.1560744192       20.5760514031       36.8280834720  TIP3      1897            0.0000000000
     23040      2033  TIP3      H1             20.4714287971       20.5200961507       36.1217292062  TIP3      1897            0.0000000000
     23041      2033  TIP3      H2             21.1026398548       21.5175143581       37.0584134388  TIP3      1897            0.0000000000
     23042      2034  TIP3      OH2            27.1867615249       13.1885553487       31.5276337206  TIP3      1898            0.0000000000
     23043      2034  TIP3      H1             27.2771762953       12.2391421321       31.6857681092  TIP3      1898            0.0000000000
     23044      2034  TIP3      H2             27.2497347204       13.5120812904       32.4506079822  TIP3      1898            0.0000000000
     23045      2035  TIP3      OH2            27.6517012171       17.7810749686       30.0115344642  TIP3      1899            0.0000000000
     23046      2035  TIP3      H1             27.4614063817       16.8139634623       29.8945569318  TIP3      1899            0.0000000000
     23047      2035  TIP3      H2             28.6107780459       17.7823944469       29.8210488152  TIP3      1899            0.0000000000
     23048      2036  TIP3      OH2            24.2198969176       11.0626186275       25.5394110318  TIP3      1900            0.0000000000
     23049      2036  TIP3      H1             23.9966858716       11.9949760843       25.7200566858  TIP3      1900            0.0000000000
     23050      2036  TIP3      H2             23.6220466219       10.8847898026       24.7894347501  TIP3      1900            0.0000000000
     23051      2037  TIP3      OH2            24.4067523034       13.0562414993       28.2387089168  TIP3      1901            0.0000000000
     23052      2037  TIP3      H1             25.0466173070       12.3242529710       28.3641692821  TIP3      1901            0.0000000000
     23053      2037  TIP3      H2             24.9530012229       13.8526288145       28.3641456114  TIP3      1901            0.0000000000
     23054      2038  TIP3      OH2            32.8267742584       16.3904849816       31.5401506335  TIP3      1902            0.0000000000
     23055      2038  TIP3      H1             33.4850410450       15.7563948036       31.2040515635  TIP3      1902            0.0000000000
     23056      2038  TIP3      H2             33.1635683686       17.2533719170       31.2193464583  TIP3      1902            0.0000000000
     23057      2039  TIP3      OH2            28.9124104477        8.3770615344       27.6577895693  TIP3      1903            0.0000000000
     23058      2039  TIP3      H1             29.1030171502        9.1821569361       27.1385302294  TIP3      1903            0.0000000000
     23059      2039  TIP3      H2             28.5859223688        7.7746868755       26.9393942188  TIP3      1903            0.0000000000
     23060      2040  TIP3      OH2            26.0818781239       10.8607916900       28.9263075548  TIP3      1904            0.0000000000
     23061      2040  TIP3      H1             26.7131809176       10.3515757984       29.4848980089  TIP3      1904            0.0000000000
     23062      2040  TIP3      H2             26.3407619035       10.5297926474       28.0342127116  TIP3      1904            0.0000000000
     23063      2041  TIP3      OH2            30.3168020526       12.1939798520       28.1060289420  TIP3      1905            0.0000000000
     23064      2041  TIP3      H1             31.0383497876       11.6100292923       28.4284282351  TIP3      1905            0.0000000000
     23065      2041  TIP3      H2             29.9864855186       11.6563244141       27.3562550512  TIP3      1905            0.0000000000
     23066      2042  TIP3      OH2            27.9433552772        7.2719131300       32.1773717906  TIP3      1906            0.0000000000
     23067      2042  TIP3      H1             27.5122276062        7.7586430623       31.4505083038  TIP3      1906            0.0000000000
     23068      2042  TIP3      H2             27.3591389197        7.5374636215       32.9142139391  TIP3      1906            0.0000000000
     23069      2043  TIP3      OH2            30.7527233257       14.8738655857       32.3145035808  TIP3      1907            0.0000000000
     23070      2043  TIP3      H1             30.1086280146       15.4962981629       32.6896939633  TIP3      1907            0.0000000000
     23071      2043  TIP3      H2             31.4213637074       15.5035344977       31.9665918490  TIP3      1907            0.0000000000
     23072      2044  TIP3      OH2            27.7886859453        9.1286690395       29.9319729941  TIP3      1908            0.0000000000
     23073      2044  TIP3      H1             28.5129162622        9.6049155737       30.3846873229  TIP3      1908            0.0000000000
     23074      2044  TIP3      H2             28.2064113335        8.8474412744       29.0780464630  TIP3      1908            0.0000000000
     23075      2045  TIP3      OH2            28.7954632739       17.1002640232       32.9021413483  TIP3      1909            0.0000000000
     23076      2045  TIP3      H1             28.6472908228       17.5595109649       32.0580170311  TIP3      1909            0.0000000000
     23077      2045  TIP3      H2             27.9111423943       17.2474483679       33.3172541181  TIP3      1909            0.0000000000
     23078      2046  TIP3      OH2            24.8529310590       16.7674582990       23.7997287818  TIP3      1910            0.0000000000
     23079      2046  TIP3      H1             24.5868086973       17.4723548078       23.2050235161  TIP3      1910            0.0000000000
     23080      2046  TIP3      H2             25.1424485640       17.3139076750       24.5609037942  TIP3      1910            0.0000000000
     23081      2047  TIP3      OH2            31.4196170604        4.8452539265       29.6255435507  TIP3      1911            0.0000000000
     23082      2047  TIP3      H1             31.4308680820        4.3665523803       30.4623808383  TIP3      1911            0.0000000000
     23083      2047  TIP3      H2             30.5656649365        5.3361481655       29.6998191137  TIP3      1911            0.0000000000
     23084      2048  TIP3      OH2            29.0867106468       14.3656600412       27.3067367888  TIP3      1912            0.0000000000
     23085      2048  TIP3      H1             29.0274799505       14.1402698157       26.3689651742  TIP3      1912            0.0000000000
     23086      2048  TIP3      H2             29.6994809580       13.6618968042       27.6137256221  TIP3      1912            0.0000000000
     23087      2049  TIP3      OH2            30.6656901002       17.6960657852       29.6726211460  TIP3      1913            0.0000000000
     23088      2049  TIP3      H1             30.9900444683       17.5886176709       28.7643464579  TIP3      1913            0.0000000000
     23089      2049  TIP3      H2             31.2242640782       17.0711772811       30.1664832222  TIP3      1913            0.0000000000
     23090      2050  TIP3      OH2            29.9271625835       12.6203759982       30.8257854731  TIP3      1914            0.0000000000
     23091      2050  TIP3      H1             30.0046699639       12.8067389512       29.8652075118  TIP3      1914            0.0000000000
     23092      2050  TIP3      H2             30.1863724027       13.4694199847       31.2400725159  TIP3      1914            0.0000000000
     23093      2051  TIP3      OH2            30.4205826068       16.9752903490       35.1412259778  TIP3      1915            0.0000000000
     23094      2051  TIP3      H1             29.9261320253       17.6927368660       35.5946766772  TIP3      1915            0.0000000000
     23095      2051  TIP3      H2             29.9302369347       16.9612981102       34.2896216482  TIP3      1915            0.0000000000
     23096      2052  TIP3      OH2            27.3338229293       13.5139326312       34.2177078243  TIP3      1916            0.0000000000
     23097      2052  TIP3      H1             27.5410261506       14.3401559119       34.6895599434  TIP3      1916            0.0000000000
     23098      2052  TIP3      H2             26.6602048765       13.1814946594       34.8317549465  TIP3      1916            0.0000000000
     23099      2053  TIP3      OH2            28.9058939416       18.8484027060       36.4081824894  TIP3      1917            0.0000000000
     23100      2053  TIP3      H1             28.8815610733       19.3742349980       35.5789217813  TIP3      1917            0.0000000000
     23101      2053  TIP3      H2             27.9379545444       18.7713236980       36.5781189585  TIP3      1917            0.0000000000
     23102      2054  TIP3      OH2            28.0008607830       13.7361101726       24.0596986326  TIP3      1918            0.0000000000
     23103      2054  TIP3      H1             27.9252557496       14.7119285259       24.0458660390  TIP3      1918            0.0000000000
     23104      2054  TIP3      H2             27.1448639688       13.4759605243       24.4136872026  TIP3      1918            0.0000000000
     23105      2055  TIP3      OH2            24.5395940324       15.9314165740       33.5053396010  TIP3      1919            0.0000000000
     23106      2055  TIP3      H1             24.1691455360       16.0672714269       32.6213978707  TIP3      1919            0.0000000000
     23107      2055  TIP3      H2             24.5734254418       14.9692613284       33.5808630401  TIP3      1919            0.0000000000
     23108      2056  TIP3      OH2            24.8396482404       18.7714350241       30.0834971084  TIP3      1920            0.0000000000
     23109      2056  TIP3      H1             25.5045895506       18.0625210627       30.0565263030  TIP3      1920            0.0000000000
     23110      2056  TIP3      H2             25.3109206853       19.4850140754       30.5318821921  TIP3      1920            0.0000000000
     23111      2057  TIP3      OH2            27.3063501259       21.3699952393       26.6876316682  TIP3      1921            0.0000000000
     23112      2057  TIP3      H1             27.4928114341       21.0355476391       27.5986228619  TIP3      1921            0.0000000000
     23113      2057  TIP3      H2             26.3905682132       21.0794523781       26.5437626079  TIP3      1921            0.0000000000
     23114      2058  TIP3      OH2            26.5451023628       17.4527999477       34.2090901797  TIP3      1922            0.0000000000
     23115      2058  TIP3      H1             26.7257189842       16.9478184133       35.0291927709  TIP3      1922            0.0000000000
     23116      2058  TIP3      H2             25.7590795615       16.9446486174       33.8980562716  TIP3      1922            0.0000000000
     23117      2059  TIP3      OH2            29.0776770306        5.8703898128       30.1831042666  TIP3      1923            0.0000000000
     23118      2059  TIP3      H1             28.1147231869        5.7755647799       30.0161770737  TIP3      1923            0.0000000000
     23119      2059  TIP3      H2             29.0547265651        6.3729880894       31.0188272498  TIP3      1923            0.0000000000
     23120      2060  TIP3      OH2            29.5943964587       10.1448042541       31.7918637009  TIP3      1924            0.0000000000
     23121      2060  TIP3      H1             28.8087638858       10.3040021946       32.3587961992  TIP3      1924            0.0000000000
     23122      2060  TIP3      H2             29.6743091917       11.0236489336       31.3436423776  TIP3      1924            0.0000000000
     23123      2061  TIP3      OH2            29.1848963623       10.6142286764       26.1926666118  TIP3      1925            0.0000000000
     23124      2061  TIP3      H1             28.2108389651       10.5124279255       26.1575663884  TIP3      1925            0.0000000000
     23125      2061  TIP3      H2             29.4994623593       10.3034969563       25.3119297750  TIP3      1925            0.0000000000
     23126      2062  TIP3      OH2            27.1879074744       10.5740820776       32.9682740925  TIP3      1926            0.0000000000
     23127      2062  TIP3      H1             27.3625288731       11.1176318403       33.7572610684  TIP3      1926            0.0000000000
     23128      2062  TIP3      H2             26.7483837686        9.7812267557       33.3399764617  TIP3      1926            0.0000000000
     23129      2063  TIP3      OH2            24.1147427386        7.7213844366       27.3523971866  TIP3      1927            0.0000000000
     23130      2063  TIP3      H1             24.9805487114        7.4022365562       27.6595144270  TIP3      1927            0.0000000000
     23131      2063  TIP3      H2             24.2645567421        7.9282790954       26.4072872250  TIP3      1927            0.0000000000
     23132      2064  TIP3      OH2            24.6743517306        8.9267288098       22.6137311639  TIP3      1928            0.0000000000
     23133      2064  TIP3      H1             25.2004851876        9.7245419037       22.5229124233  TIP3      1928            0.0000000000
     23134      2064  TIP3      H2             23.8128204317        9.3186638689       22.8410667496  TIP3      1928            0.0000000000
     23135      2065  TIP3      OH2            31.5445734204        7.8151543874       27.7474936058  TIP3      1929            0.0000000000
     23136      2065  TIP3      H1             30.6308861700        8.0423413753       28.0264228809  TIP3      1929            0.0000000000
     23137      2065  TIP3      H2             32.0986772137        8.3992892013       28.2928013792  TIP3      1929            0.0000000000
     23138      2066  TIP3      OH2            26.4747532793       10.0289313826       26.4533813419  TIP3      1930            0.0000000000
     23139      2066  TIP3      H1             25.5953259656       10.3836137143       26.1672257282  TIP3      1930            0.0000000000
     23140      2066  TIP3      H2             26.6174178255        9.3400895519       25.7903626776  TIP3      1930            0.0000000000
     23141      2067  TIP3      OH2            30.2367719660       10.0676592632       23.7115606166  TIP3      1931            0.0000000000
     23142      2067  TIP3      H1             31.0427659166       10.1607139725       24.2643515075  TIP3      1931            0.0000000000
     23143      2067  TIP3      H2             30.5952102347        9.5643642256       22.9578676356  TIP3      1931            0.0000000000
     23144      2068  TIP3      OH2            28.4997438381       11.9391927360       21.4327255009  TIP3      1932            0.0000000000
     23145      2068  TIP3      H1             27.9659329998       11.1942368398       21.1315839812  TIP3      1932            0.0000000000
     23146      2068  TIP3      H2             29.1812778177       11.5562631206       22.0174789536  TIP3      1932            0.0000000000
     23147      2069  TIP3      OH2            26.8407979084       15.7010782647       36.4866311720  TIP3      1933            0.0000000000
     23148      2069  TIP3      H1             27.5643552117       15.7840320523       37.1339230352  TIP3      1933            0.0000000000
     23149      2069  TIP3      H2             26.0733767887       15.4896901937       37.0617683182  TIP3      1933            0.0000000000
     23150      2070  TIP3      OH2            32.4494848812       10.6982364449       28.8014208402  TIP3      1934            0.0000000000
     23151      2070  TIP3      H1             33.3306907949       10.8395343759       28.4127233761  TIP3      1934            0.0000000000
     23152      2070  TIP3      H2             32.6716119178       10.9695240603       29.7230835662  TIP3      1934            0.0000000000
     23153      2071  TIP3      OH2            27.9799871073        6.7414831505       25.8140507359  TIP3      1935            0.0000000000
     23154      2071  TIP3      H1             27.2256206939        6.1874558604       26.1111434607  TIP3      1935            0.0000000000
     23155      2071  TIP3      H2             28.5782344394        6.0963873035       25.4163335560  TIP3      1935            0.0000000000
     23156      2072  TIP3      OH2            32.0671414246        9.1816047245       32.5757434620  TIP3      1936            0.0000000000
     23157      2072  TIP3      H1             31.2620494227        9.7111036599       32.4039332748  TIP3      1936            0.0000000000
     23158      2072  TIP3      H2             32.6830174456        9.6367669879       31.9747048705  TIP3      1936            0.0000000000
     23159      2073  TIP3      OH2            32.3203583944       15.6881480126       23.9710321177  TIP3      1937            0.0000000000
     23160      2073  TIP3      H1             31.6222706805       15.0842542960       23.6690626533  TIP3      1937            0.0000000000
     23161      2073  TIP3      H2             31.9054651983       16.0987205243       24.7651536029  TIP3      1937            0.0000000000
     23162      2074  TIP3      OH2            27.4252031204       15.1135420374       29.7505736538  TIP3      1938            0.0000000000
     23163      2074  TIP3      H1             27.9812637385       14.7672993066       29.0291155666  TIP3      1938            0.0000000000
     23164      2074  TIP3      H2             27.3812729433       14.3263709408       30.3431877633  TIP3      1938            0.0000000000
     23165      2075  TIP3      OH2            24.4255508221       13.5527362403       35.1485356679  TIP3      1939            0.0000000000
     23166      2075  TIP3      H1             24.4331168904       12.7409761761       35.6789331284  TIP3      1939            0.0000000000
     23167      2075  TIP3      H2             23.8732150179       13.2879134403       34.3818488698  TIP3      1939            0.0000000000
     23168      2076  TIP3      OH2            31.8286376741       13.1439825044       36.4845504010  TIP3      1940            0.0000000000
     23169      2076  TIP3      H1             31.3487477746       13.0048281643       35.6496027431  TIP3      1940            0.0000000000
     23170      2076  TIP3      H2             32.3581674731       12.3301699115       36.5482699751  TIP3      1940            0.0000000000
     23171      2077  TIP3      OH2            29.8799775866       18.7503398960       26.8281927751  TIP3      1941            0.0000000000
     23172      2077  TIP3      H1             30.1016188088       19.6921884962       26.6421665872  TIP3      1941            0.0000000000
     23173      2077  TIP3      H2             28.9473535930       18.7497715205       26.5675923433  TIP3      1941            0.0000000000
     23174      2078  TIP3      OH2            31.1377991963       16.3790492174       26.3086548609  TIP3      1942            0.0000000000
     23175      2078  TIP3      H1             30.7762379340       17.2883370918       26.4219169529  TIP3      1942            0.0000000000
     23176      2078  TIP3      H2             30.5031435999       15.8674932298       26.8355165832  TIP3      1942            0.0000000000
     23177      2079  TIP3      OH2            31.7219992803       20.3843409841       33.4295676276  TIP3      1943            0.0000000000
     23178      2079  TIP3      H1             31.9036663591       21.3347412436       33.3615065940  TIP3      1943            0.0000000000
     23179      2079  TIP3      H2             32.3806874604       20.0777292574       34.0675050696  TIP3      1943            0.0000000000
     23180      2080  TIP3      OH2            30.1701445117       21.4118737550       26.1272537598  TIP3      1944            0.0000000000
     23181      2080  TIP3      H1             29.2307328389       21.6370268547       26.2793493673  TIP3      1944            0.0000000000
     23182      2080  TIP3      H2             30.6277839473       22.1484054270       26.5997186950  TIP3      1944            0.0000000000
     23183      2081  TIP3      OH2            26.4587880546        8.0883872637       34.4050343795  TIP3      1945            0.0000000000
     23184      2081  TIP3      H1             25.9003298658        8.4269190764       35.1149350738  TIP3      1945            0.0000000000
     23185      2081  TIP3      H2             26.6020899695        7.1856526714       34.7514904320  TIP3      1945            0.0000000000
     23186      2082  TIP3      OH2            26.1291688581       20.3118140293       32.5997942967  TIP3      1946            0.0000000000
     23187      2082  TIP3      H1             26.1979045446       19.3565132225       32.5129008107  TIP3      1946            0.0000000000
     23188      2082  TIP3      H2             26.5089277127       20.4205037988       33.4840321042  TIP3      1946            0.0000000000
     23189      2083  TIP3      OH2            31.0726750993       18.8616887088       19.7782866949  TIP3      1947            0.0000000000
     23190      2083  TIP3      H1             30.1958493088       18.4872134476       19.5328209917  TIP3      1947            0.0000000000
     23191      2083  TIP3      H2             30.8656471898       19.0975638369       20.7019578405  TIP3      1947            0.0000000000
     23192      2084  TIP3      OH2            30.8466774612       18.8047569426       22.5783351982  TIP3      1948            0.0000000000
     23193      2084  TIP3      H1             29.9723810511       18.3630521117       22.7007795451  TIP3      1948            0.0000000000
     23194      2084  TIP3      H2             30.6784340408       19.7012260973       22.9417101083  TIP3      1948            0.0000000000
     23195      2085  TIP3      OH2            31.9795384431        9.3733087162       25.6340469224  TIP3      1949            0.0000000000
     23196      2085  TIP3      H1             32.9170628335        9.6072341526       25.7481801402  TIP3      1949            0.0000000000
     23197      2085  TIP3      H2             31.8572360854        8.7328274244       26.3691360411  TIP3      1949            0.0000000000
     23198      2086  TIP3      OH2            30.6473125081       21.5416727430       23.3701248153  TIP3      1950            0.0000000000
     23199      2086  TIP3      H1             30.1162172286       22.2458201201       22.9669653951  TIP3      1950            0.0000000000
     23200      2086  TIP3      H2             30.3689908727       21.5595376240       24.3093012289  TIP3      1950            0.0000000000
     23201      2087  TIP3      OH2            28.3353049872       17.8539336468       22.4281484406  TIP3      1951            0.0000000000
     23202      2087  TIP3      H1             27.7295105644       18.6029021065       22.3781481058  TIP3      1951            0.0000000000
     23203      2087  TIP3      H2             28.4019771656       17.5783361880       21.4835595347  TIP3      1951            0.0000000000
     23204      2088  TIP3      OH2            26.5301897680        5.3013288600       29.6349216791  TIP3      1952            0.0000000000
     23205      2088  TIP3      H1             26.5921893123        5.1731794343       28.6614497164  TIP3      1952            0.0000000000
     23206      2088  TIP3      H2             26.4069118425        4.3730379198       29.9430265027  TIP3      1952            0.0000000000
     23207      2089  TIP3      OH2            25.7214613307       18.8014017893       25.4282047452  TIP3      1953            0.0000000000
     23208      2089  TIP3      H1             25.3619124568       19.2108497863       26.2294322628  TIP3      1953            0.0000000000
     23209      2089  TIP3      H2             25.7098901804       19.5496196471       24.7902437637  TIP3      1953            0.0000000000
     23210      2090  TIP3      OH2            24.6621571381       22.2774134266       37.2382094856  TIP3      1954            0.0000000000
     23211      2090  TIP3      H1             25.4101085058       22.0261841509       37.8281997410  TIP3      1954            0.0000000000
     23212      2090  TIP3      H2             24.2696983298       21.3915365304       37.1118547508  TIP3      1954            0.0000000000
     23213      2091  TIP3      OH2            29.2559207279       20.9084719971       38.2319611806  TIP3      1955            0.0000000000
     23214      2091  TIP3      H1             30.1690805640       20.6206841452       38.3861255275  TIP3      1955            0.0000000000
     23215      2091  TIP3      H2             29.0309163309       20.3523663940       37.4611657919  TIP3      1955            0.0000000000
     23216      2092  TIP3      OH2            24.5565099127       15.7824622842       38.1891622526  TIP3      1956            0.0000000000
     23217      2092  TIP3      H1             24.0740524421       14.9346205699       38.2450663306  TIP3      1956            0.0000000000
     23218      2092  TIP3      H2             24.1894271642       16.1536393309       37.3567425855  TIP3      1956            0.0000000000
     23219      2093  TIP3      OH2            31.3659576478       15.8700787696       37.3662402642  TIP3      1957            0.0000000000
     23220      2093  TIP3      H1             31.1147031469       16.3012561948       36.5120773354  TIP3      1957            0.0000000000
     23221      2093  TIP3      H2             31.4902273893       14.9463000253       37.0446858499  TIP3      1957            0.0000000000
     23222      2094  TIP3      OH2            26.0266324479       12.9652286981       37.5514415708  TIP3      1958            0.0000000000
     23223      2094  TIP3      H1             25.5394312396       12.1879458388       37.8188344617  TIP3      1958            0.0000000000
     23224      2094  TIP3      H2             26.2269837598       13.3893515170       38.4175502944  TIP3      1958            0.0000000000
     23225      2095  TIP3      OH2            30.0813985162       13.9325585315       22.3678169717  TIP3      1959            0.0000000000
     23226      2095  TIP3      H1             29.4208305055       13.7649291852       23.0700925957  TIP3      1959            0.0000000000
     23227      2095  TIP3      H2             29.6181848759       13.5450227022       21.6134631589  TIP3      1959            0.0000000000
     23228      2096  TIP3      OH2            29.5451139019       12.0603400626       34.4595917275  TIP3      1960            0.0000000000
     23229      2096  TIP3      H1             28.7691580862       12.6574354737       34.4099821016  TIP3      1960            0.0000000000
     23230      2096  TIP3      H2             30.1355291304       12.4113927267       33.7794619805  TIP3      1960            0.0000000000
     23231      2097  TIP3      OH2            32.1929976165       10.2141376035       21.4397463638  TIP3      1961            0.0000000000
     23232      2097  TIP3      H1             32.7693842850       10.2429186331       20.6334233486  TIP3      1961            0.0000000000
     23233      2097  TIP3      H2             31.8539873487       11.1139064509       21.4284866778  TIP3      1961            0.0000000000
     23234      2098  TIP3      OH2            30.0804550676        9.4809311184       35.2536992092  TIP3      1962            0.0000000000
     23235      2098  TIP3      H1             30.1662100370        8.8159755204       34.5511888327  TIP3      1962            0.0000000000
     23236      2098  TIP3      H2             29.8981343523       10.3318991337       34.7879157316  TIP3      1962            0.0000000000
     23237      2099  TIP3      OH2            30.4732963076        7.1259695324       33.1934142714  TIP3      1963            0.0000000000
     23238      2099  TIP3      H1             31.1389460316        7.7638874480       32.8541055288  TIP3      1963            0.0000000000
     23239      2099  TIP3      H2             29.6555026929        7.4610825567       32.7673166035  TIP3      1963            0.0000000000
     23240      2100  TIP3      OH2            32.4463608023       12.7475370309       33.3935704120  TIP3      1964            0.0000000000
     23241      2100  TIP3      H1             32.6347937985       12.1338869642       32.6579420963  TIP3      1964            0.0000000000
     23242      2100  TIP3      H2             32.2313191995       13.5687734941       32.9201603502  TIP3      1964            0.0000000000
     23243      2101  TIP3      OH2            28.9818012572       10.2105086339       37.6173699797  TIP3      1965            0.0000000000
     23244      2101  TIP3      H1             28.0393082918       10.0201704425       37.4207344339  TIP3      1965            0.0000000000
     23245      2101  TIP3      H2             29.4096958722        9.9547653725       36.7709522807  TIP3      1965            0.0000000000
     23246      2102  TIP3      OH2            31.1766571415        4.5579787106       33.3468200356  TIP3      1966            0.0000000000
     23247      2102  TIP3      H1             31.0364748715        5.5372162206       33.4067865726  TIP3      1966            0.0000000000
     23248      2102  TIP3      H2             30.2346291015        4.3037735571       33.2304454766  TIP3      1966            0.0000000000
     23249      2103  TIP3      OH2            31.9998735348        9.9050198363       37.2799170459  TIP3      1967            0.0000000000
     23250      2103  TIP3      H1             31.5782995253        9.2803417581       37.8860730975  TIP3      1967            0.0000000000
     23251      2103  TIP3      H2             31.6894397649        9.5521600710       36.4226002606  TIP3      1967            0.0000000000
     23252      2104  TIP3      OH2            26.7527202911        8.5382761970       37.5194689842  TIP3      1968            0.0000000000
     23253      2104  TIP3      H1             27.0550543841        7.6533815621       37.2485725560  TIP3      1968            0.0000000000
     23254      2104  TIP3      H2             26.7802466678        8.4451481381       38.5035307983  TIP3      1968            0.0000000000
     23255      2105  TIP3      OH2            31.5088685726        4.5299252715       36.1524703800  TIP3      1969            0.0000000000
     23256      2105  TIP3      H1             32.4064858011        4.1667138360       36.2780824382  TIP3      1969            0.0000000000
     23257      2105  TIP3      H2             31.4314985116        4.5589700099       35.1779587075  TIP3      1969            0.0000000000
     23258      2106  TIP3      OH2            31.7782143977        5.8178760651       38.6621716741  TIP3      1970            0.0000000000
     23259      2106  TIP3      H1             31.5158722094        5.4030164862       37.8256538356  TIP3      1970            0.0000000000
     23260      2106  TIP3      H2             31.2305358700        6.6287751593       38.6443747630  TIP3      1970            0.0000000000
     23261      2107  TIP3      OH2            23.6981670406       22.9139761843       26.3375217890  TIP3      1971            0.0000000000
     23262      2107  TIP3      H1             22.9503690051       22.4994602080       25.8531121685  TIP3      1971            0.0000000000
     23263      2107  TIP3      H2             23.8841918972       22.2287784821       27.0068512058  TIP3      1971            0.0000000000
     23264      2108  TIP3      OH2            24.6201663511       21.1510014121       28.3926263464  TIP3      1972            0.0000000000
     23265      2108  TIP3      H1             24.1468261833       20.3970167539       28.7844239140  TIP3      1972            0.0000000000
     23266      2108  TIP3      H2             24.7219352032       21.7311951463       29.1811020575  TIP3      1972            0.0000000000
     23267      2109  TIP3      OH2            24.5430394577       13.3220433001       31.0827322869  TIP3      1973            0.0000000000
     23268      2109  TIP3      H1             24.3521581507       13.8258602012       30.2536829534  TIP3      1973            0.0000000000
     23269      2109  TIP3      H2             25.5236787495       13.3879491076       31.0725668130  TIP3      1973            0.0000000000
     23270      2110  TIP3      OH2            24.2593700964        9.3438001494       37.9932044905  TIP3      1974            0.0000000000
     23271      2110  TIP3      H1             25.1829044955        9.0177890207       37.9193553694  TIP3      1974            0.0000000000
     23272      2110  TIP3      H2             23.7730839511        8.6288543374       37.5339265953  TIP3      1974            0.0000000000
     23273      2111  TIP3      OH2            25.5972183702        7.6374822074       30.3049461055  TIP3      1975            0.0000000000
     23274      2111  TIP3      H1             25.9192791940        6.7270557188       30.0804996090  TIP3      1975            0.0000000000
     23275      2111  TIP3      H2             26.3049152144        8.2272074538       29.9605795419  TIP3      1975            0.0000000000
     23276      2112  TIP3      OH2            23.8199774752       10.8736039100       30.3320486503  TIP3      1976            0.0000000000
     23277      2112  TIP3      H1             24.7054862657       10.7429006360       29.9237416026  TIP3      1976            0.0000000000
     23278      2112  TIP3      H2             23.8931279917       11.8288847978       30.5535400947  TIP3      1976            0.0000000000
     23279      2113  TIP3      OH2            23.8740997226        7.2233310736       24.6113318812  TIP3      1977            0.0000000000
     23280      2113  TIP3      H1             22.9115752012        7.1803610141       24.6938562609  TIP3      1977            0.0000000000
     23281      2113  TIP3      H2             23.9841094981        7.5589089499       23.6982998745  TIP3      1977            0.0000000000
     23282      2114  TIP3      OH2            23.8874045340        5.5185964763       32.9255784653  TIP3      1978            0.0000000000
     23283      2114  TIP3      H1             23.2099644162        5.1833171448       33.5363437862  TIP3      1978            0.0000000000
     23284      2114  TIP3      H2             23.5113234250        6.3396759719       32.5847910494  TIP3      1978            0.0000000000
     23285      2115  TIP3      OH2            26.2875794324       18.9323868218       37.0452397450  TIP3      1979            0.0000000000
     23286      2115  TIP3      H1             25.3950599787       19.1279332096       36.7116637175  TIP3      1979            0.0000000000
     23287      2115  TIP3      H2             26.1193596580       18.3305732006       37.7800058701  TIP3      1979            0.0000000000
     23288      2116  TIP3      OH2            29.0883990277       20.3879013190       33.9989748810  TIP3      1980            0.0000000000
     23289      2116  TIP3      H1             28.9822233874       21.1876787047       33.4313357424  TIP3      1980            0.0000000000
     23290      2116  TIP3      H2             30.0341552288       20.1835348269       33.8106643008  TIP3      1980            0.0000000000
     23291      2117  TIP3      OH2            26.5306249257       23.4229869528       33.6035852258  TIP3      1981            0.0000000000
     23292      2117  TIP3      H1             25.7068181151       23.9219313213       33.4003023603  TIP3      1981            0.0000000000
     23293      2117  TIP3      H2             26.4132705498       23.2634882495       34.5480633129  TIP3      1981            0.0000000000
     23294      2118  TIP3      OH2            28.7571480424       22.6375824797       32.4888538790  TIP3      1982            0.0000000000
     23295      2118  TIP3      H1             27.8515976432       22.7494828558       32.8760107381  TIP3      1982            0.0000000000
     23296      2118  TIP3      H2             28.7195913715       23.3170810622       31.7839107993  TIP3      1982            0.0000000000
     23297      2119  TIP3      OH2            26.3892377794       22.0185790245       30.4490619792  TIP3      1983            0.0000000000
     23298      2119  TIP3      H1             26.1684450255       21.5652065014       31.2916054771  TIP3      1983            0.0000000000
     23299      2119  TIP3      H2             27.0959414919       21.4340791143       30.1013183343  TIP3      1983            0.0000000000
     23300      2120  TIP3      OH2            28.0962881093       20.4274018158       29.0679487001  TIP3      1984            0.0000000000
     23301      2120  TIP3      H1             27.8328157085       19.5295010177       29.3524597742  TIP3      1984            0.0000000000
     23302      2120  TIP3      H2             28.9292265073       20.5469071210       29.5852550366  TIP3      1984            0.0000000000
     23303      2121  TIP3      OH2            30.3015263308       20.3364278394       30.5245804991  TIP3      1985            0.0000000000
     23304      2121  TIP3      H1             30.6254171404       19.4868125372       30.1624455264  TIP3      1985            0.0000000000
     23305      2121  TIP3      H2             30.6470347415       20.3121520891       31.4312881141  TIP3      1985            0.0000000000
     23306      2122  TIP3      OH2            26.0892206686        5.1351854509       26.8613462271  TIP3      1986            0.0000000000
     23307      2122  TIP3      H1             25.2124624851        4.8248819792       26.5608356334  TIP3      1986            0.0000000000
     23308      2122  TIP3      H2             26.6515747202        4.3717624107       26.5953380177  TIP3      1986            0.0000000000
     23309      2123  TIP3      OH2            25.1372925082        5.2591572117       22.9483948262  TIP3      1987            0.0000000000
     23310      2123  TIP3      H1             25.0293204632        5.7618919376       22.1381439125  TIP3      1987            0.0000000000
     23311      2123  TIP3      H2             24.9030922070        5.8961416678       23.6460617964  TIP3      1987            0.0000000000
     23312      2124  TIP3      OH2            31.0145241341        4.9607451419       27.0223916657  TIP3      1988            0.0000000000
     23313      2124  TIP3      H1             31.0641943136        5.9303146640       27.0163268743  TIP3      1988            0.0000000000
     23314      2124  TIP3      H2             31.1838206353        4.7966809779       27.9805652478  TIP3      1988            0.0000000000
     23315      2125  TIP3      OH2            25.1950997469       20.9810757109       23.8447589785  TIP3      1989            0.0000000000
     23316      2125  TIP3      H1             24.2598917484       20.9867127000       23.5754188309  TIP3      1989            0.0000000000
     23317      2125  TIP3      H2             25.4102797222       21.9144553146       23.6521221757  TIP3      1989            0.0000000000
     23318      2126  TIP3      OH2            30.9999327411        7.2139479209       24.1262521911  TIP3      1990            0.0000000000
     23319      2126  TIP3      H1             31.8587815612        6.7563861646       24.1113843903  TIP3      1990            0.0000000000
     23320      2126  TIP3      H2             31.2209361628        8.0863569868       24.4993931558  TIP3      1990            0.0000000000
     23321      2127  TIP3      OH2            26.1978612147        5.7929945267       36.4549564750  TIP3      1991            0.0000000000
     23322      2127  TIP3      H1             25.6961957816        4.9549394583       36.4378205024  TIP3      1991            0.0000000000
     23323      2127  TIP3      H2             26.9097313661        5.5984722216       37.1031629317  TIP3      1991            0.0000000000
     23324      2128  TIP3      OH2            28.1318862532        5.2574257126       38.2448686400  TIP3      1992            0.0000000000
     23325      2128  TIP3      H1             28.7793088947        4.5971268854       37.9335942340  TIP3      1992            0.0000000000
     23326      2128  TIP3      H2             27.4645321762        4.6766108281       38.6744850500  TIP3      1992            0.0000000000
     23327      2129  TIP3      OH2            27.4414765488       22.7205129029       21.0612836675  TIP3      1993            0.0000000000
     23328      2129  TIP3      H1             26.8408124912       22.8089981202       21.8172701616  TIP3      1993            0.0000000000
     23329      2129  TIP3      H2             27.2040011770       21.8714540451       20.6430879910  TIP3      1993            0.0000000000
     23330      2130  TIP3      OH2           -21.2174839299       32.3226951007       29.5777435225  TIP3      1994            0.0000000000
     23331      2130  TIP3      H1            -20.6776679338       31.7806327073       30.1798258789  TIP3      1994            0.0000000000
     23332      2130  TIP3      H2            -22.1014045333       31.9647949170       29.7120888436  TIP3      1994            0.0000000000
     23333      2131  TIP3      OH2           -30.1448711196       32.0554010770       31.0323127648  TIP3      1995            0.0000000000
     23334      2131  TIP3      H1            -30.0027853696       31.4026336429       31.7214532696  TIP3      1995            0.0000000000
     23335      2131  TIP3      H2            -29.5514074184       32.7714584384       31.2839289949  TIP3      1995            0.0000000000
     23336      2132  TIP3      OH2           -31.6436083629       30.8415305757       24.5509760461  TIP3      1996            0.0000000000
     23337      2132  TIP3      H1            -32.4795020195       30.9757764495       25.0198830488  TIP3      1996            0.0000000000
     23338      2132  TIP3      H2            -31.8689824823       30.0848275809       23.9753624368  TIP3      1996            0.0000000000
     23339      2133  TIP3      OH2           -31.5683338316       32.0476337272       28.4672622547  TIP3      1997            0.0000000000
     23340      2133  TIP3      H1            -31.0801882322       31.2167040348       28.6735472482  TIP3      1997            0.0000000000
     23341      2133  TIP3      H2            -31.0247837367       32.4892034236       27.7997987630  TIP3      1997            0.0000000000
     23342      2134  TIP3      OH2           -15.4871944223       26.4941655771       30.9875026683  TIP3      1998            0.0000000000
     23343      2134  TIP3      H1            -15.4875421476       27.1668829956       31.6993220552  TIP3      1998            0.0000000000
     23344      2134  TIP3      H2            -14.5409175716       26.4808697040       30.7667709124  TIP3      1998            0.0000000000
     23345      2135  TIP3      OH2           -20.7410883404       29.3759645977       31.0495670840  TIP3      1999            0.0000000000
     23346      2135  TIP3      H1            -20.7039670378       28.4102187189       31.2204841883  TIP3      1999            0.0000000000
     23347      2135  TIP3      H2            -20.8361024947       29.3990382746       30.0703173562  TIP3      1999            0.0000000000
     23348      2136  TIP3      OH2           -27.8889503604       27.3275396778       28.1072236312  TIP3      2000            0.0000000000
     23349      2136  TIP3      H1            -27.5416721639       28.1234725433       27.6443792224  TIP3      2000            0.0000000000
     23350      2136  TIP3      H2            -28.0187392916       26.7533559686       27.3209645170  TIP3      2000            0.0000000000
     23351      2137  TIP3      OH2           -19.9059911539       27.0530813828       27.1835874330  TIP3      2001            0.0000000000
     23352      2137  TIP3      H1            -19.6346802414       26.7066404061       28.0523148784  TIP3      2001            0.0000000000
     23353      2137  TIP3      H2            -19.0706991909       27.5163409164       26.9718722257  TIP3      2001            0.0000000000
     23354      2138  TIP3      OH2           -30.2654535531       29.6797805978       28.5177869169  TIP3      2002            0.0000000000
     23355      2138  TIP3      H1            -29.9355697700       28.8985681556       28.9985422184  TIP3      2002            0.0000000000
     23356      2138  TIP3      H2            -30.0624802244       29.4245309947       27.5863428670  TIP3      2002            0.0000000000
     23357      2139  TIP3      OH2           -25.7632595072       31.2338842830       28.3691033932  TIP3      2003            0.0000000000
     23358      2139  TIP3      H1            -24.9762840744       30.6660684727       28.4959221505  TIP3      2003            0.0000000000
     23359      2139  TIP3      H2            -26.2600653788       30.6489579772       27.7527567958  TIP3      2003            0.0000000000
     23360      2140  TIP3      OH2           -15.4593206218       27.8795018414       33.5397445276  TIP3      2004            0.0000000000
     23361      2140  TIP3      H1            -15.9398432486       28.6690477395       33.1857214927  TIP3      2004            0.0000000000
     23362      2140  TIP3      H2            -14.9805984054       28.2927007562       34.2789321906  TIP3      2004            0.0000000000
     23363      2141  TIP3      OH2           -28.1887602695       26.1063187036       32.4045616064  TIP3      2005            0.0000000000
     23364      2141  TIP3      H1            -28.8343610659       26.7333864303       32.0342963185  TIP3      2005            0.0000000000
     23365      2141  TIP3      H2            -28.5985279512       25.9285856948       33.2745884347  TIP3      2005            0.0000000000
     23366      2142  TIP3      OH2           -17.8149426331       27.4144266476       29.0074681392  TIP3      2006            0.0000000000
     23367      2142  TIP3      H1            -17.1375828179       26.7236004963       28.9520687849  TIP3      2006            0.0000000000
     23368      2142  TIP3      H2            -17.2732518260       28.1619322640       29.3275057210  TIP3      2006            0.0000000000
     23369      2143  TIP3      OH2           -29.0659977202       28.0554055242       30.3733042485  TIP3      2007            0.0000000000
     23370      2143  TIP3      H1            -28.4068907438       28.6756591356       30.7520772242  TIP3      2007            0.0000000000
     23371      2143  TIP3      H2            -28.5729788325       27.7488170455       29.5632163508  TIP3      2007            0.0000000000
     23372      2144  TIP3      OH2           -18.2040970500       25.5465013541       31.5891368603  TIP3      2008            0.0000000000
     23373      2144  TIP3      H1            -19.0087653396       26.0122526052       31.2873763715  TIP3      2008            0.0000000000
     23374      2144  TIP3      H2            -17.4921044955       26.0999766396       31.2134898714  TIP3      2008            0.0000000000
     23375      2145  TIP3      OH2           -25.2041980372       23.4181123931       29.9189504702  TIP3      2009            0.0000000000
     23376      2145  TIP3      H1            -25.5377130335       22.5499711344       29.6534188799  TIP3      2009            0.0000000000
     23377      2145  TIP3      H2            -26.0664014740       23.8854492820       30.0561576049  TIP3      2009            0.0000000000
     23378      2146  TIP3      OH2           -22.4365275634       32.4301656536       24.3862029722  TIP3      2010            0.0000000000
     23379      2146  TIP3      H1            -23.3703808034       32.3800119516       24.6209737341  TIP3      2010            0.0000000000
     23380      2146  TIP3      H2            -22.1894012637       33.1896737449       24.9557438267  TIP3      2010            0.0000000000
     23381      2147  TIP3      OH2           -15.6208470562       32.0190397656       32.1777425091  TIP3      2011            0.0000000000
     23382      2147  TIP3      H1            -14.9469173619       32.6638243954       32.4864294526  TIP3      2011            0.0000000000
     23383      2147  TIP3      H2            -15.7290604889       32.2569753148       31.2420535870  TIP3      2011            0.0000000000
     23384      2148  TIP3      OH2           -18.9587361521       32.4384375070       25.9992843171  TIP3      2012            0.0000000000
     23385      2148  TIP3      H1            -19.4361542682       31.6350570800       26.2875292122  TIP3      2012            0.0000000000
     23386      2148  TIP3      H2            -18.0539936537       32.0965405189       25.9400116317  TIP3      2012            0.0000000000
     23387      2149  TIP3      OH2           -19.1480152157       30.9373708337       33.8963708977  TIP3      2013            0.0000000000
     23388      2149  TIP3      H1            -19.1079795532       31.5387144566       34.6770273475  TIP3      2013            0.0000000000
     23389      2149  TIP3      H2            -19.9313522048       31.2561379691       33.4045621314  TIP3      2013            0.0000000000
     23390      2150  TIP3      OH2           -26.9055847477       31.6711318640       30.8152430226  TIP3      2014            0.0000000000
     23391      2150  TIP3      H1            -26.6618694395       31.5516036613       29.8631822827  TIP3      2014            0.0000000000
     23392      2150  TIP3      H2            -26.8266638186       32.6476250570       30.8663847220  TIP3      2014            0.0000000000
     23393      2151  TIP3      OH2           -19.4411145481       30.7628955898       22.8252337131  TIP3      2015            0.0000000000
     23394      2151  TIP3      H1            -19.4297528171       30.6726227480       23.7880357291  TIP3      2015            0.0000000000
     23395      2151  TIP3      H2            -19.7423180947       31.6932506798       22.7618209457  TIP3      2015            0.0000000000
     23396      2152  TIP3      OH2           -28.1552386126       32.5878296939       34.1976491023  TIP3      2016            0.0000000000
     23397      2152  TIP3      H1            -28.2763793924       32.8495286574       35.1270469589  TIP3      2016            0.0000000000
     23398      2152  TIP3      H2            -29.0035906729       32.1667612361       33.9887368412  TIP3      2016            0.0000000000
     23399      2153  TIP3      OH2           -28.3788246034       33.0204297026       24.5326355585  TIP3      2017            0.0000000000
     23400      2153  TIP3      H1            -28.8357090680       33.6336112927       23.9226768345  TIP3      2017            0.0000000000
     23401      2153  TIP3      H2            -28.8220591106       32.1960056424       24.2869359258  TIP3      2017            0.0000000000
     23402      2154  TIP3      OH2           -16.9567581737       29.3948769189       36.0284464159  TIP3      2018            0.0000000000
     23403      2154  TIP3      H1            -17.8200884590       29.6573703577       35.6643534968  TIP3      2018            0.0000000000
     23404      2154  TIP3      H2            -17.1135263533       28.4392707655       36.1552923093  TIP3      2018            0.0000000000
     23405      2155  TIP3      OH2           -27.2494652156       24.9736464368       30.2512889696  TIP3      2019            0.0000000000
     23406      2155  TIP3      H1            -28.1166305190       24.7089339526       29.8725264468  TIP3      2019            0.0000000000
     23407      2155  TIP3      H2            -27.5407110561       25.7158350297       30.8086298238  TIP3      2019            0.0000000000
     23408      2156  TIP3      OH2           -22.3253264645       23.8907236586       33.5557647017  TIP3      2020            0.0000000000
     23409      2156  TIP3      H1            -21.8809110607       23.5835955838       34.3794346107  TIP3      2020            0.0000000000
     23410      2156  TIP3      H2            -23.2569869524       23.9601158277       33.8468787537  TIP3      2020            0.0000000000
     23411      2157  TIP3      OH2           -19.7932221774       28.4034892606       34.8712614116  TIP3      2021            0.0000000000
     23412      2157  TIP3      H1            -20.6208030619       28.2946473600       35.3960075579  TIP3      2021            0.0000000000
     23413      2157  TIP3      H2            -19.8308691101       29.3412210602       34.6071473012  TIP3      2021            0.0000000000
     23414      2158  TIP3      OH2           -27.2084595280       29.1776245098       31.8562204835  TIP3      2022            0.0000000000
     23415      2158  TIP3      H1            -27.8073614987       29.3041763321       32.6219884414  TIP3      2022            0.0000000000
     23416      2158  TIP3      H2            -27.1612187400       30.1085869750       31.5136856014  TIP3      2022            0.0000000000
     23417      2159  TIP3      OH2           -27.3655259061       29.6107702062       26.6978923414  TIP3      2023            0.0000000000
     23418      2159  TIP3      H1            -28.2902564997       29.5995925467       26.3438843169  TIP3      2023            0.0000000000
     23419      2159  TIP3      H2            -26.8461882878       29.5829064005       25.8646699213  TIP3      2023            0.0000000000
     23420      2160  TIP3      OH2           -21.1060968149       30.6729326496       25.8454688359  TIP3      2024            0.0000000000
     23421      2160  TIP3      H1            -21.4069885608       31.3871193849       25.2300308306  TIP3      2024            0.0000000000
     23422      2160  TIP3      H2            -21.5875004753       29.9078912417       25.5055385645  TIP3      2024            0.0000000000
     23423      2161  TIP3      OH2           -22.0347957191       30.0474859747       36.4684282558  TIP3      2025            0.0000000000
     23424      2161  TIP3      H1            -22.3408070245       29.2505926143       36.9468395938  TIP3      2025            0.0000000000
     23425      2161  TIP3      H2            -21.2904700186       30.2848115733       37.0615067976  TIP3      2025            0.0000000000
     23426      2162  TIP3      OH2           -20.9391660866       29.4467298055       28.3499763223  TIP3      2026            0.0000000000
     23427      2162  TIP3      H1            -21.0772767754       30.0167727687       27.5610912552  TIP3      2026            0.0000000000
     23428      2162  TIP3      H2            -20.6176716328       28.6281269151       27.9308264195  TIP3      2026            0.0000000000
     23429      2163  TIP3      OH2           -29.6402258625       29.4964173884       33.5418395449  TIP3      2027            0.0000000000
     23430      2163  TIP3      H1            -30.2975301095       29.5713513706       34.2623917086  TIP3      2027            0.0000000000
     23431      2163  TIP3      H2            -29.7631665375       28.5402148198       33.3332025222  TIP3      2027            0.0000000000
     23432      2164  TIP3      OH2           -31.3802761888       27.0809692696       27.4180277203  TIP3      2028            0.0000000000
     23433      2164  TIP3      H1            -31.6754809347       26.6042217891       28.2075077748  TIP3      2028            0.0000000000
     23434      2164  TIP3      H2            -31.9231525185       26.6802752257       26.7270526355  TIP3      2028            0.0000000000
     23435      2165  TIP3      OH2           -31.5582383995       28.2201182574       22.8441015435  TIP3      2029            0.0000000000
     23436      2165  TIP3      H1            -30.6153269780       28.2382919340       22.5573111113  TIP3      2029            0.0000000000
     23437      2165  TIP3      H2            -31.8752943791       27.3695726210       22.4946591978  TIP3      2029            0.0000000000
     23438      2166  TIP3      OH2           -21.6834188524       31.1368774240       32.7689222290  TIP3      2030            0.0000000000
     23439      2166  TIP3      H1            -21.3764450426       30.4486606044       32.1342774651  TIP3      2030            0.0000000000
     23440      2166  TIP3      H2            -22.0667090720       30.5521230189       33.4557145549  TIP3      2030            0.0000000000
     23441      2167  TIP3      OH2           -25.1973207570       26.5587676978       28.1893602119  TIP3      2031            0.0000000000
     23442      2167  TIP3      H1            -26.0177438354       26.7042974099       28.7037352086  TIP3      2031            0.0000000000
     23443      2167  TIP3      H2            -24.6295885041       26.0016738645       28.7666185041  TIP3      2031            0.0000000000
     23444      2168  TIP3      OH2           -29.8189293394       29.0426061934       25.8537812774  TIP3      2032            0.0000000000
     23445      2168  TIP3      H1            -30.3771612933       29.2172962081       25.0747404569  TIP3      2032            0.0000000000
     23446      2168  TIP3      H2            -29.9003016053       28.0765671120       25.9195400725  TIP3      2032            0.0000000000
     23447      2169  TIP3      OH2           -25.8341489821       29.3478503311       24.5572285294  TIP3      2033            0.0000000000
     23448      2169  TIP3      H1            -25.9166343021       28.5323616028       24.0499717032  TIP3      2033            0.0000000000
     23449      2169  TIP3      H2            -26.4797948526       29.9094742509       24.0697507641  TIP3      2033            0.0000000000
     23450      2170  TIP3      OH2           -20.6166749735       26.5461045692       30.7714660422  TIP3      2034            0.0000000000
     23451      2170  TIP3      H1            -21.2624857073       26.1517920214       31.3901316898  TIP3      2034            0.0000000000
     23452      2170  TIP3      H2            -20.7283573414       26.0095335671       29.9762906133  TIP3      2034            0.0000000000
     23453      2171  TIP3      OH2           -23.6918150295       29.5180990764       28.7742435804  TIP3      2035            0.0000000000
     23454      2171  TIP3      H1            -22.7480215808       29.3062258001       28.6273738983  TIP3      2035            0.0000000000
     23455      2171  TIP3      H2            -23.9560274830       28.8634114038       29.4470900370  TIP3      2035            0.0000000000
     23456      2172  TIP3      OH2           -28.5526177308       25.7487651849       25.7418115482  TIP3      2036            0.0000000000
     23457      2172  TIP3      H1            -29.1396657522       25.0196225652       26.0443546428  TIP3      2036            0.0000000000
     23458      2172  TIP3      H2            -28.7474211751       25.7815327198       24.7881701044  TIP3      2036            0.0000000000
     23459      2173  TIP3      OH2           -24.7102064879       28.1586901958       31.4413855413  TIP3      2037            0.0000000000
     23460      2173  TIP3      H1            -25.4985209413       28.7457970643       31.4178544373  TIP3      2037            0.0000000000
     23461      2173  TIP3      H2            -24.1288703487       28.6423767528       32.0503287331  TIP3      2037            0.0000000000
     23462      2174  TIP3      OH2           -31.6723082225       31.8356151362       34.4552242756  TIP3      2038            0.0000000000
     23463      2174  TIP3      H1            -31.5062811062       31.6070550209       35.3899826936  TIP3      2038            0.0000000000
     23464      2174  TIP3      H2            -32.6463891049       31.8707789456       34.4307180960  TIP3      2038            0.0000000000
     23465      2175  TIP3      OH2           -24.4677791350       31.4157223239       36.4474318464  TIP3      2039            0.0000000000
     23466      2175  TIP3      H1            -25.1115644443       31.0382037062       35.8142743596  TIP3      2039            0.0000000000
     23467      2175  TIP3      H2            -23.7013479269       30.8117803415       36.3386373981  TIP3      2039            0.0000000000
     23468      2176  TIP3      OH2           -15.2843143330       29.0096196363       23.4266023657  TIP3      2040            0.0000000000
     23469      2176  TIP3      H1            -16.0036730806       29.3081589292       22.8622272731  TIP3      2040            0.0000000000
     23470      2176  TIP3      H2            -14.6747388273       29.7615734019       23.3960201236  TIP3      2040            0.0000000000
     23471      2177  TIP3      OH2           -31.5907343614       32.3711804007       21.0819177317  TIP3      2041            0.0000000000
     23472      2177  TIP3      H1            -30.8240730227       31.8109331715       21.2787495751  TIP3      2041            0.0000000000
     23473      2177  TIP3      H2            -31.5677971006       32.9407513959       21.8693010808  TIP3      2041            0.0000000000
     23474      2178  TIP3      OH2           -30.2725035332       26.9027077195       34.0608264707  TIP3      2042            0.0000000000
     23475      2178  TIP3      H1            -30.6579400997       27.4636462238       34.7683673563  TIP3      2042            0.0000000000
     23476      2178  TIP3      H2            -30.9094940439       26.1628503686       34.0571953183  TIP3      2042            0.0000000000
     23477      2179  TIP3      OH2           -21.6214277879       26.5586609497       33.5651938554  TIP3      2043            0.0000000000
     23478      2179  TIP3      H1            -20.7464982485       26.5960366596       33.9885871058  TIP3      2043            0.0000000000
     23479      2179  TIP3      H2            -21.8534781626       25.6158692423       33.6339353691  TIP3      2043            0.0000000000
     23480      2180  TIP3      OH2           -20.5498633415       26.6363610364       24.5517174468  TIP3      2044            0.0000000000
     23481      2180  TIP3      H1            -19.7040033751       26.4798397961       24.1171533334  TIP3      2044            0.0000000000
     23482      2180  TIP3      H2            -20.2777411837       26.7931238800       25.4801402782  TIP3      2044            0.0000000000
     23483      2181  TIP3      OH2           -24.0147946719       27.5611003105       25.5079201079  TIP3      2045            0.0000000000
     23484      2181  TIP3      H1            -24.3464567673       28.4113635810       25.1698330053  TIP3      2045            0.0000000000
     23485      2181  TIP3      H2            -24.6049515303       27.4623030402       26.2717286591  TIP3      2045            0.0000000000
     23486      2182  TIP3      OH2           -22.8027716768       28.9548489204       34.0337878782  TIP3      2046            0.0000000000
     23487      2182  TIP3      H1            -22.5669544006       29.1516515002       34.9601955986  TIP3      2046            0.0000000000
     23488      2182  TIP3      H2            -22.3762262285       28.0747901025       33.8895922776  TIP3      2046            0.0000000000
     23489      2183  TIP3      OH2           -22.6187512679       24.9060405055       26.1371438142  TIP3      2047            0.0000000000
     23490      2183  TIP3      H1            -23.2073577744       25.5494050437       26.5780675635  TIP3      2047            0.0000000000
     23491      2183  TIP3      H2            -21.9726250483       25.5299053812       25.7501598383  TIP3      2047            0.0000000000
     23492      2184  TIP3      OH2           -17.3481147034       26.7755348599       35.2598486782  TIP3      2048            0.0000000000
     23493      2184  TIP3      H1            -18.2605902921       27.0766064585       35.0643704411  TIP3      2048            0.0000000000
     23494      2184  TIP3      H2            -16.8744967721       27.1846072991       34.4994993066  TIP3      2048            0.0000000000
     23495      2185  TIP3      OH2           -17.9641602154       30.7513824579       28.6401432435  TIP3      2049            0.0000000000
     23496      2185  TIP3      H1            -18.7425221805       30.2066224706       28.8573467288  TIP3      2049            0.0000000000
     23497      2185  TIP3      H2            -17.2817802620       30.3814593818       29.2415960544  TIP3      2049            0.0000000000
     23498      2186  TIP3      OH2           -29.6485941500       24.2356966320       29.4637432891  TIP3      2050            0.0000000000
     23499      2186  TIP3      H1            -29.8759327037       24.2315559128       28.5039885339  TIP3      2050            0.0000000000
     23500      2186  TIP3      H2            -30.0599381763       23.3892929485       29.7714467778  TIP3      2050            0.0000000000
     23501      2187  TIP3      OH2           -30.8111407947       31.4886925896       37.2547640171  TIP3      2051            0.0000000000
     23502      2187  TIP3      H1            -30.0829168637       30.9396481862       37.5817154254  TIP3      2051            0.0000000000
     23503      2187  TIP3      H2            -31.2200558590       31.7341951658       38.1182542307  TIP3      2051            0.0000000000
     23504      2188  TIP3      OH2           -25.7613203191       32.4471720785       22.4934048392  TIP3      2052            0.0000000000
     23505      2188  TIP3      H1            -26.4803302765       32.3261358511       23.1343809682  TIP3      2052            0.0000000000
     23506      2188  TIP3      H2            -25.9920597575       31.7282142434       21.8868246198  TIP3      2052            0.0000000000
     23507      2189  TIP3      OH2           -26.0735897335       30.4965907035       34.3849509969  TIP3      2053            0.0000000000
     23508      2189  TIP3      H1            -26.8163504054       31.0756763795       34.1420795559  TIP3      2053            0.0000000000
     23509      2189  TIP3      H2            -25.4252015984       30.7197224545       33.6785468214  TIP3      2053            0.0000000000
     23510      2190  TIP3      OH2           -26.0591258013       28.0868058959       35.5516856420  TIP3      2054            0.0000000000
     23511      2190  TIP3      H1            -26.0712798561       27.4461310351       34.8058072054  TIP3      2054            0.0000000000
     23512      2190  TIP3      H2            -26.1461581552       28.9448100698       35.0774034462  TIP3      2054            0.0000000000
     23513      2191  TIP3      OH2           -25.7204479056       26.4095461114       33.4448712539  TIP3      2055            0.0000000000
     23514      2191  TIP3      H1            -25.0871259216       26.9247528063       32.9014169171  TIP3      2055            0.0000000000
     23515      2191  TIP3      H2            -26.5375239644       26.5444770516       32.9172755294  TIP3      2055            0.0000000000
     23516      2192  TIP3      OH2           -24.3944233149       31.5668486746       32.6741174097  TIP3      2056            0.0000000000
     23517      2192  TIP3      H1            -23.4286187291       31.6224884964       32.5592145873  TIP3      2056            0.0000000000
     23518      2192  TIP3      H2            -24.6791376225       32.4999958124       32.7092523117  TIP3      2056            0.0000000000
     23519      2193  TIP3      OH2           -20.0302747242       29.9293738255       38.3069670410  TIP3      2057            0.0000000000
     23520      2193  TIP3      H1            -20.0766310846       28.9711772540       38.4208327111  TIP3      2057            0.0000000000
     23521      2193  TIP3      H2            -19.4883361060       30.2016383318       39.0609862047  TIP3      2057            0.0000000000
     23522      2194  TIP3      OH2           -18.5010152881       32.3496853909       36.1292168601  TIP3      2058            0.0000000000
     23523      2194  TIP3      H1            -18.5862382999       33.2110255657       36.5587294069  TIP3      2058            0.0000000000
     23524      2194  TIP3      H2            -17.6211236553       32.0898658400       36.4541113924  TIP3      2058            0.0000000000
     23525      2195  TIP3      OH2           -27.6068906633       28.8022676801       37.6604846254  TIP3      2059            0.0000000000
     23526      2195  TIP3      H1            -28.4378331223       28.3088781090       37.5097153109  TIP3      2059            0.0000000000
     23527      2195  TIP3      H2            -27.0700649054       28.5230113156       36.8850908206  TIP3      2059            0.0000000000
     23528      2196  TIP3      OH2           -25.1985990076       23.7556165221       33.4592661558  TIP3      2060            0.0000000000
     23529      2196  TIP3      H1            -25.4258835936       24.7160724083       33.4841884962  TIP3      2060            0.0000000000
     23530      2196  TIP3      H2            -26.0604305250       23.3642586966       33.2602678145  TIP3      2060            0.0000000000
     23531      2197  TIP3      OH2           -24.1381525969       28.1130126019       37.4137803612  TIP3      2061            0.0000000000
     23532      2197  TIP3      H1            -24.7635272175       27.9922550042       38.1479366136  TIP3      2061            0.0000000000
     23533      2197  TIP3      H2            -24.7747680397       28.1614969220       36.6600184782  TIP3      2061            0.0000000000
     23534      2198  TIP3      OH2           -21.7532818726       27.3290148592       36.5961841503  TIP3      2062            0.0000000000
     23535      2198  TIP3      H1            -22.7190318510       27.4024569178       36.7818199586  TIP3      2062            0.0000000000
     23536      2198  TIP3      H2            -21.4416698183       26.7756271610       37.3369268130  TIP3      2062            0.0000000000
     23537      2199  TIP3      OH2           -20.6097894467       25.9128636258       38.7177570813  TIP3      2063            0.0000000000
     23538      2199  TIP3      H1            -20.4210990338       24.9573204489       38.5466704463  TIP3      2063            0.0000000000
     23539      2199  TIP3      H2            -21.3574684343       25.8832201735       39.3492382391  TIP3      2063            0.0000000000
     23540      2200  TIP3      OH2           -30.0133906401       27.0973261020       37.5793280780  TIP3      2064            0.0000000000
     23541      2200  TIP3      H1            -30.0976321589       26.1919937193       37.2151795313  TIP3      2064            0.0000000000
     23542      2200  TIP3      H2            -30.2244137255       26.9026874033       38.5276425436  TIP3      2064            0.0000000000
     23543      2201  TIP3      OH2           -25.4979174520       23.3308247736       36.3860449322  TIP3      2065            0.0000000000
     23544      2201  TIP3      H1            -24.6721001802       22.8541758114       36.5751528979  TIP3      2065            0.0000000000
     23545      2201  TIP3      H2            -25.5221719301       23.2004584241       35.4206286499  TIP3      2065            0.0000000000
     23546      2202  TIP3      OH2           -25.1054878867       24.8567428365       39.1230598902  TIP3      2066            0.0000000000
     23547      2202  TIP3      H1            -25.3291790903       24.3383744157       38.3288742271  TIP3      2066            0.0000000000
     23548      2202  TIP3      H2            -25.6503464081       25.6597994007       38.9599104567  TIP3      2066            0.0000000000
     23549      2203  TIP3      OH2           -14.6189118116       32.5389809514       26.2233910623  TIP3      2067            0.0000000000
     23550      2203  TIP3      H1            -15.3215277899       31.8518168351       26.3115175193  TIP3      2067            0.0000000000
     23551      2203  TIP3      H2            -14.0452969734       32.3206137649       26.9770735455  TIP3      2067            0.0000000000
     23552      2204  TIP3      OH2           -16.4771678023       30.6127085675       26.4461078378  TIP3      2068            0.0000000000
     23553      2204  TIP3      H1            -16.5450024498       29.6438258041       26.3913312275  TIP3      2068            0.0000000000
     23554      2204  TIP3      H2            -16.9996972732       30.7421174253       27.2741722323  TIP3      2068            0.0000000000
     23555      2205  TIP3      OH2           -16.0198930025       32.4868775729       37.3419857844  TIP3      2069            0.0000000000
     23556      2205  TIP3      H1            -15.6767123353       31.5975596290       37.1442440054  TIP3      2069            0.0000000000
     23557      2205  TIP3      H2            -15.9201300736       32.9325293945       36.4703178102  TIP3      2069            0.0000000000
     23558      2206  TIP3      OH2           -14.5147568849       30.0997422061       37.1268205858  TIP3      2070            0.0000000000
     23559      2206  TIP3      H1            -15.2965834134       29.7813289468       36.6194092067  TIP3      2070            0.0000000000
     23560      2206  TIP3      H2            -13.8210546207       29.5552064224       36.6978847744  TIP3      2070            0.0000000000
     23561      2207  TIP3      OH2           -17.8197761164       28.3557876165       25.7822520935  TIP3      2071            0.0000000000
     23562      2207  TIP3      H1            -17.4034274270       27.4674092448       25.6875073528  TIP3      2071            0.0000000000
     23563      2207  TIP3      H2            -17.4929474539       28.7770736657       24.9804762517  TIP3      2071            0.0000000000
     23564      2208  TIP3      OH2           -16.1931839168       29.2164239099       30.2130916378  TIP3      2072            0.0000000000
     23565      2208  TIP3      H1            -15.2751999144       29.1989438882       30.5665686780  TIP3      2072            0.0000000000
     23566      2208  TIP3      H2            -16.6882276554       29.3398474674       31.0514827195  TIP3      2072            0.0000000000
     23567      2209  TIP3      OH2           -16.9398346887       29.8648281939       32.8031061930  TIP3      2073            0.0000000000
     23568      2209  TIP3      H1            -17.8115333809       30.1672821361       33.1465211058  TIP3      2073            0.0000000000
     23569      2209  TIP3      H2            -16.4798556224       30.7349566985       32.6598377260  TIP3      2073            0.0000000000
     23570      2210  TIP3      OH2           -31.5441035450       28.5929713764       35.9503366217  TIP3      2074            0.0000000000
     23571      2210  TIP3      H1            -30.9931443520       28.1026963743       36.5989818683  TIP3      2074            0.0000000000
     23572      2210  TIP3      H2            -32.3858902255       28.5561185769       36.4439210211  TIP3      2074            0.0000000000
     23573      2211  TIP3      OH2           -14.6502340560       24.2356472635       38.0462529045  TIP3      2075            0.0000000000
     23574      2211  TIP3      H1            -14.1493258009       23.4502640156       37.7208704657  TIP3      2075            0.0000000000
     23575      2211  TIP3      H2            -14.4133668090       24.9121300771       37.3685941803  TIP3      2075            0.0000000000
     23576      2212  TIP3      OH2           -16.7671812784       25.8903050681       25.2454096207  TIP3      2076            0.0000000000
     23577      2212  TIP3      H1            -16.4039126770       25.4616836809       26.0453340948  TIP3      2076            0.0000000000
     23578      2212  TIP3      H2            -17.2587509337       25.1438192907       24.8402415827  TIP3      2076            0.0000000000
     23579      2213  TIP3      OH2           -31.0789852724       26.3713083102       30.3653504481  TIP3      2077            0.0000000000
     23580      2213  TIP3      H1            -30.5743373673       25.5825473282       30.0763819909  TIP3      2077            0.0000000000
     23581      2213  TIP3      H2            -30.3634569780       27.0389987647       30.4313807186  TIP3      2077            0.0000000000
     23582      2214  TIP3      OH2           -32.6535093680       30.1200173684       31.0867263142  TIP3      2078            0.0000000000
     23583      2214  TIP3      H1            -31.8307749546       29.6121070811       31.1919395536  TIP3      2078            0.0000000000
     23584      2214  TIP3      H2            -32.3220266197       31.0369754510       31.0385714273  TIP3      2078            0.0000000000
     23585      2215  TIP3      OH2           -14.8144245844       25.9858526705       36.0492455778  TIP3      2079            0.0000000000
     23586      2215  TIP3      H1            -15.6884918087       26.4204765746       36.0613671534  TIP3      2079            0.0000000000
     23587      2215  TIP3      H2            -15.0922532674       25.2315975983       35.4818078833  TIP3      2079            0.0000000000
     23588      2216  TIP3      OH2           -15.2863603049       25.6570979180       21.7447003851  TIP3      2080            0.0000000000
     23589      2216  TIP3      H1            -14.8941936059       24.9857946155       21.1345637190  TIP3      2080            0.0000000000
     23590      2216  TIP3      H2            -14.4626269344       26.0582546372       22.0733432646  TIP3      2080            0.0000000000
     23591      2217  TIP3      OH2           -32.6882726068       26.1153101658       24.7172666859  TIP3      2081            0.0000000000
     23592      2217  TIP3      H1            -32.8900806703       26.1257216720       23.7510250851  TIP3      2081            0.0000000000
     23593      2217  TIP3      H2            -31.7647505394       25.8266899081       24.7074748718  TIP3      2081            0.0000000000
     23594      2218  TIP3      OH2           -32.6005771555       24.3137209229       32.9364143702  TIP3      2082            0.0000000000
     23595      2218  TIP3      H1            -33.4729469849       24.0567351798       33.2918307829  TIP3      2082            0.0000000000
     23596      2218  TIP3      H2            -32.8535435646       24.7863292413       32.1284219738  TIP3      2082            0.0000000000
     23597      2219  TIP3      OH2           -16.0213923744       23.7403019486       34.7088537816  TIP3      2083            0.0000000000
     23598      2219  TIP3      H1            -16.6719637556       24.1534566540       34.1144529149  TIP3      2083            0.0000000000
     23599      2219  TIP3      H2            -15.9284988567       22.8341344884       34.3328758925  TIP3      2083            0.0000000000
     23600      2220  TIP3      OH2           -23.1655096553       24.8362842338       29.1716109454  TIP3      2084            0.0000000000
     23601      2220  TIP3      H1            -23.9059698541       24.2359652377       29.4580955562  TIP3      2084            0.0000000000
     23602      2220  TIP3      H2            -22.5998154383       24.2589727254       28.6526441692  TIP3      2084            0.0000000000
     23603      2221  TIP3      OH2           -17.3796050763       23.2563553912       28.9134855563  TIP3      2085            0.0000000000
     23604      2221  TIP3      H1            -16.8145977168       23.9818221738       28.5743749395  TIP3      2085            0.0000000000
     23605      2221  TIP3      H2            -18.2821291214       23.5540795720       28.6606655298  TIP3      2085            0.0000000000
     23606      2222  TIP3      OH2           -15.7146489090       24.9759783383       27.6887017699  TIP3      2086            0.0000000000
     23607      2222  TIP3      H1            -15.1159886879       24.2782343401       27.3368978474  TIP3      2086            0.0000000000
     23608      2222  TIP3      H2            -15.0712677213       25.7008316879       27.8674559453  TIP3      2086            0.0000000000
     23609      2223  TIP3      OH2           -30.2392615550       23.8853732525       26.7764416426  TIP3      2087            0.0000000000
     23610      2223  TIP3      H1            -31.0985013176       23.6256257571       26.3755324954  TIP3      2087            0.0000000000
     23611      2223  TIP3      H2            -29.7146868663       23.0626334541       26.6131212490  TIP3      2087            0.0000000000
     23612      2224  TIP3      OH2           -30.6474655940       24.8321527938       23.5771457061  TIP3      2088            0.0000000000
     23613      2224  TIP3      H1            -30.6970960115       24.4397327245       22.6900755380  TIP3      2088            0.0000000000
     23614      2224  TIP3      H2            -31.4341453349       24.4069568498       23.9544380796  TIP3      2088            0.0000000000
     23615      2225  TIP3      OH2           -25.7747749275       23.4781994942       26.9913411842  TIP3      2089            0.0000000000
     23616      2225  TIP3      H1            -25.1544885527       23.8571428813       26.3586359818  TIP3      2089            0.0000000000
     23617      2225  TIP3      H2            -25.8893950965       24.1916967403       27.6314318456  TIP3      2089            0.0000000000
     23618      2226  TIP3      OH2           -19.9670839097       23.6188720049       28.1120866586  TIP3      2090            0.0000000000
     23619      2226  TIP3      H1            -20.5641971029       23.9162567904       27.4120332252  TIP3      2090            0.0000000000
     23620      2226  TIP3      H2            -20.3875267867       22.8046774176       28.4412465398  TIP3      2090            0.0000000000
     23621      2227  TIP3      OH2           -18.2976622464       23.8126757622       24.2357771189  TIP3      2091            0.0000000000
     23622      2227  TIP3      H1            -18.4237104780       23.9973197083       23.3061524165  TIP3      2091            0.0000000000
     23623      2227  TIP3      H2            -18.9785072065       23.1259430647       24.4271431370  TIP3      2091            0.0000000000
     23624      2228  TIP3      OH2           -24.3789346438       25.1517399000       24.0155202441  TIP3      2092            0.0000000000
     23625      2228  TIP3      H1            -23.6261136557       24.8017884625       24.5122922000  TIP3      2092            0.0000000000
     23626      2228  TIP3      H2            -24.3961847470       26.0853824283       24.3075831363  TIP3      2092            0.0000000000
     23627      2229  TIP3      OH2           -30.4662952708       24.3754981358       36.4717673033  TIP3      2093            0.0000000000
     23628      2229  TIP3      H1            -30.9345142986       23.5415480280       36.6297572390  TIP3      2093            0.0000000000
     23629      2229  TIP3      H2            -29.6451292765       24.2532434431       37.0007518119  TIP3      2093            0.0000000000
     23630      2230  TIP3      OH2           -28.4403581871       24.0173493626       38.2813040490  TIP3      2094            0.0000000000
     23631      2230  TIP3      H1            -27.6790221099       23.5581737773       37.8813769159  TIP3      2094            0.0000000000
     23632      2230  TIP3      H2            -28.7565100389       23.2954418828       38.8697057927  TIP3      2094            0.0000000000
     23633      2231  TIP3      OH2           -19.7847393784       23.4523017717       38.2583647061  TIP3      2095            0.0000000000
     23634      2231  TIP3      H1            -19.6429161101       22.8854098400       39.0450121957  TIP3      2095            0.0000000000
     23635      2231  TIP3      H2            -18.8927304267       23.4310837664       37.8450606260  TIP3      2095            0.0000000000
     23636      2232  TIP3      OH2            -2.4659050808       32.4250443219       29.9700758238  TIP3      2096            0.0000000000
     23637      2232  TIP3      H1             -2.3736908063       32.0896675069       30.8766149689  TIP3      2096            0.0000000000
     23638      2232  TIP3      H2             -3.3718647566       32.1564094254       29.7754185205  TIP3      2096            0.0000000000
     23639      2233  TIP3      OH2           -11.1231108575       32.1721647103       31.4602189874  TIP3      2097            0.0000000000
     23640      2233  TIP3      H1            -11.0595047265       31.2613948335       31.8073663546  TIP3      2097            0.0000000000
     23641      2233  TIP3      H2            -10.7576083493       32.6838079562       32.2030575936  TIP3      2097            0.0000000000
     23642      2234  TIP3      OH2           -13.0385294082       29.8077044533       25.3472988064  TIP3      2098            0.0000000000
     23643      2234  TIP3      H1            -13.3063065537       30.7009138562       25.6110955563  TIP3      2098            0.0000000000
     23644      2234  TIP3      H2            -13.8583070929       29.3248091585       25.5342348997  TIP3      2098            0.0000000000
     23645      2235  TIP3      OH2           -12.1551337948       31.9264933935       27.6788192425  TIP3      2099            0.0000000000
     23646      2235  TIP3      H1            -12.0530473280       31.1397770370       28.2682935130  TIP3      2099            0.0000000000
     23647      2235  TIP3      H2            -11.5434028348       31.7227129260       26.9417641759  TIP3      2099            0.0000000000
     23648      2236  TIP3      OH2             3.3392155125       27.0271132422       31.4883605314  TIP3      2100            0.0000000000
     23649      2236  TIP3      H1              3.9652305188       27.1039961764       32.2264793764  TIP3      2100            0.0000000000
     23650      2236  TIP3      H2              3.6511388400       26.1833474155       31.1029872215  TIP3      2100            0.0000000000
     23651      2237  TIP3      OH2            -1.8972629862       29.4967727681       31.1777211021  TIP3      2101            0.0000000000
     23652      2237  TIP3      H1             -1.9137360667       28.5189191266       31.2364752518  TIP3      2101            0.0000000000
     23653      2237  TIP3      H2             -1.7825061849       29.5963394469       30.2149567437  TIP3      2101            0.0000000000
     23654      2238  TIP3      OH2            -8.6282510926       27.1004601069       28.1972760609  TIP3      2102            0.0000000000
     23655      2238  TIP3      H1             -8.4350144321       27.8486827571       27.6023964001  TIP3      2102            0.0000000000
     23656      2238  TIP3      H2             -9.0396071010       26.4792809818       27.5631338482  TIP3      2102            0.0000000000
     23657      2239  TIP3      OH2            -0.8077418770       27.5189876578       26.9413606436  TIP3      2103            0.0000000000
     23658      2239  TIP3      H1             -0.2833422996       27.3406297808       27.7570137380  TIP3      2103            0.0000000000
     23659      2239  TIP3      H2             -0.3084022702       28.2492374617       26.5355934995  TIP3      2103            0.0000000000
     23660      2240  TIP3      OH2           -12.0515011933       29.5346000205       29.0324720352  TIP3      2104            0.0000000000
     23661      2240  TIP3      H1            -11.4511820935       29.0738542546       29.6519712646  TIP3      2104            0.0000000000
     23662      2240  TIP3      H2            -11.7659546454       29.1037977737       28.1951223615  TIP3      2104            0.0000000000
     23663      2241  TIP3      OH2            -6.9136795256       31.1962860202       28.3717931149  TIP3      2105            0.0000000000
     23664      2241  TIP3      H1             -6.0707719627       30.6867142503       28.4579169293  TIP3      2105            0.0000000000
     23665      2241  TIP3      H2             -7.4421764642       30.5852677945       27.8343535906  TIP3      2105            0.0000000000
     23666      2242  TIP3      OH2             4.1398223225       28.2667020108       34.0907357030  TIP3      2106            0.0000000000
     23667      2242  TIP3      H1              3.4459501399       28.6594047638       33.5247834497  TIP3      2106            0.0000000000
     23668      2242  TIP3      H2              3.5916699704       27.8167788660       34.7420143102  TIP3      2106            0.0000000000
     23669      2243  TIP3      OH2            -9.4164741187       26.2488700878       32.4828715562  TIP3      2107            0.0000000000
     23670      2243  TIP3      H1             -9.9033719518       26.7725174706       31.8150028513  TIP3      2107            0.0000000000
     23671      2243  TIP3      H2            -10.0353966668       26.3399083753       33.2371137020  TIP3      2107            0.0000000000
     23672      2244  TIP3      OH2             1.0176136749       27.2311048365       29.0722391531  TIP3      2108            0.0000000000
     23673      2244  TIP3      H1              1.5621359288       26.4699923572       28.8237252487  TIP3      2108            0.0000000000
     23674      2244  TIP3      H2              1.6325510254       27.7567249634       29.6214378237  TIP3      2108            0.0000000000
     23675      2245  TIP3      OH2           -10.1223666396       28.1081207502       30.4153664777  TIP3      2109            0.0000000000
     23676      2245  TIP3      H1             -9.4786768719       28.6745232568       30.9002196929  TIP3      2109            0.0000000000
     23677      2245  TIP3      H2             -9.5495614788       27.7672573752       29.6877918714  TIP3      2109            0.0000000000
     23678      2246  TIP3      OH2             0.7718464730       26.0755031398       32.0831285243  TIP3      2110            0.0000000000
     23679      2246  TIP3      H1              0.2819294131       26.3281597569       31.2876284961  TIP3      2110            0.0000000000
     23680      2246  TIP3      H2              1.6689994972       26.3997030490       31.8605993828  TIP3      2110            0.0000000000
     23681      2247  TIP3      OH2            -6.1433687803       23.6712999333       29.7122898299  TIP3      2111            0.0000000000
     23682      2247  TIP3      H1             -6.4462026553       22.7473702082       29.7939167464  TIP3      2111            0.0000000000
     23683      2247  TIP3      H2             -6.9591077639       24.1591813983       30.0017295752  TIP3      2111            0.0000000000
     23684      2248  TIP3      OH2            -2.9371803126       32.3715304978       23.9892008237  TIP3      2112            0.0000000000
     23685      2248  TIP3      H1             -3.0149027823       33.3302240131       23.9919750972  TIP3      2112            0.0000000000
     23686      2248  TIP3      H2             -2.1328108318       32.2310677215       23.4366809910  TIP3      2112            0.0000000000
     23687      2249  TIP3      OH2             3.5991804348       31.5199739575       32.6857420306  TIP3      2113            0.0000000000
     23688      2249  TIP3      H1              4.0022448378       32.4178175247       32.6751654256  TIP3      2113            0.0000000000
     23689      2249  TIP3      H2              4.1161551628       31.0532809158       31.9753801050  TIP3      2113            0.0000000000
     23690      2250  TIP3      OH2             0.0427737608       31.7367020081       25.2313208654  TIP3      2114            0.0000000000
     23691      2250  TIP3      H1             -0.4836986638       31.1659183340       25.8230069578  TIP3      2114            0.0000000000
     23692      2250  TIP3      H2              0.9469199370       31.6002002597       25.5864810216  TIP3      2114            0.0000000000
     23693      2251  TIP3      OH2            -0.5220435637       30.8370158478       34.0523546751  TIP3      2115            0.0000000000
     23694      2251  TIP3      H1             -0.5180390134       31.5582093818       34.7169449211  TIP3      2115            0.0000000000
     23695      2251  TIP3      H2             -1.2718494316       31.0955459244       33.4731854314  TIP3      2115            0.0000000000
     23696      2252  TIP3      OH2            -8.0254543493       31.8466928183       30.8338869099  TIP3      2116            0.0000000000
     23697      2252  TIP3      H1             -7.7540658093       31.5934606731       29.9255654286  TIP3      2116            0.0000000000
     23698      2252  TIP3      H2             -8.1136217654       32.8195169392       30.6954247325  TIP3      2116            0.0000000000
     23699      2253  TIP3      OH2            -0.6478666393       31.6824808332       22.6234625282  TIP3      2117            0.0000000000
     23700      2253  TIP3      H1             -0.1863015417       31.8101674988       23.4810206188  TIP3      2117            0.0000000000
     23701      2253  TIP3      H2              0.0454916712       31.9345807329       21.9778326083  TIP3      2117            0.0000000000
     23702      2254  TIP3      OH2            -9.7261941110       32.7600451089       34.2198473154  TIP3      2118            0.0000000000
     23703      2254  TIP3      H1             -9.3864524791       33.2299845155       34.9972117887  TIP3      2118            0.0000000000
     23704      2254  TIP3      H2            -10.5324608761       32.3397885124       34.5637218974  TIP3      2118            0.0000000000
     23705      2255  TIP3      OH2             2.8513157164       23.5575307118       23.5814277724  TIP3      2119            0.0000000000
     23706      2255  TIP3      H1              1.9001294677       23.6055563864       23.4306272598  TIP3      2119            0.0000000000
     23707      2255  TIP3      H2              3.1901432503       24.3447549265       23.0917295713  TIP3      2119            0.0000000000
     23708      2256  TIP3      OH2           -10.4771213780       32.0428980079       25.3479700792  TIP3      2120            0.0000000000
     23709      2256  TIP3      H1             -9.8302867234       32.6155845930       24.9000009723  TIP3      2120            0.0000000000
     23710      2256  TIP3      H2            -10.5438168357       31.3009109267       24.7313013433  TIP3      2120            0.0000000000
     23711      2257  TIP3      OH2             1.9151425116       29.5947793485       36.1170501962  TIP3      2121            0.0000000000
     23712      2257  TIP3      H1              1.3619711870       29.7670492007       35.3352219983  TIP3      2121            0.0000000000
     23713      2257  TIP3      H2              1.8575492412       28.6217760675       36.1600384160  TIP3      2121            0.0000000000
     23714      2258  TIP3      OH2            -8.1907683847       24.9725669516       30.6020694129  TIP3      2122            0.0000000000
     23715      2258  TIP3      H1             -8.9297377522       25.1777132156       30.0170664053  TIP3      2122            0.0000000000
     23716      2258  TIP3      H2             -8.5437505104       25.3309854547       31.4512972843  TIP3      2122            0.0000000000
     23717      2259  TIP3      OH2            -3.3704157992       24.1332065947       33.8617420676  TIP3      2123            0.0000000000
     23718      2259  TIP3      H1             -2.9301220269       23.6636291721       34.6063469334  TIP3      2123            0.0000000000
     23719      2259  TIP3      H2             -4.3100269197       24.1600093528       34.1430275316  TIP3      2123            0.0000000000
     23720      2260  TIP3      OH2            -0.9291158108       28.3363416843       35.1554465066  TIP3      2124            0.0000000000
     23721      2260  TIP3      H1             -1.8027806915       28.2629822773       35.6163650817  TIP3      2124            0.0000000000
     23722      2260  TIP3      H2             -1.0244718240       29.1581928453       34.6194564747  TIP3      2124            0.0000000000
     23723      2261  TIP3      OH2             1.5907278292       32.5675674849       20.8484411869  TIP3      2125            0.0000000000
     23724      2261  TIP3      H1              2.4930156778       32.1613034091       20.8347174723  TIP3      2125            0.0000000000
     23725      2261  TIP3      H2              1.6948773309       33.1549747892       21.6086767218  TIP3      2125            0.0000000000
     23726      2262  TIP3      OH2            -3.7991068093       26.5644714727       21.8284049600  TIP3      2126            0.0000000000
     23727      2262  TIP3      H1             -4.5397719862       26.0447377886       22.1659396567  TIP3      2126            0.0000000000
     23728      2262  TIP3      H2             -3.9795037724       26.5137366685       20.8437816937  TIP3      2126            0.0000000000
     23729      2263  TIP3      OH2            -8.4489438536       29.4237456704       32.0776152617  TIP3      2127            0.0000000000
     23730      2263  TIP3      H1             -9.2428200893       29.6131429012       32.6174834174  TIP3      2127            0.0000000000
     23731      2263  TIP3      H2             -8.3925667065       30.2219898191       31.4993484290  TIP3      2127            0.0000000000
     23732      2264  TIP3      OH2            -8.3840331910       29.2514058825       26.4031691338  TIP3      2128            0.0000000000
     23733      2264  TIP3      H1             -9.3427398011       29.0477681758       26.4979378438  TIP3      2128            0.0000000000
     23734      2264  TIP3      H2             -8.2414650519       29.0223439145       25.4681746001  TIP3      2128            0.0000000000
     23735      2265  TIP3      OH2            -2.5210169969       30.3211103418       25.6930155986  TIP3      2129            0.0000000000
     23736      2265  TIP3      H1             -2.9221415232       31.0338250198       25.1409820441  TIP3      2129            0.0000000000
     23737      2265  TIP3      H2             -2.0765551181       29.7792781864       25.0159646331  TIP3      2129            0.0000000000
     23738      2266  TIP3      OH2            -3.2882219356       30.2133146546       36.9704713678  TIP3      2130            0.0000000000
     23739      2266  TIP3      H1             -3.7490376336       29.4506448476       37.3617660178  TIP3      2130            0.0000000000
     23740      2266  TIP3      H2             -2.3944353704       30.1140075508       37.3582627794  TIP3      2130            0.0000000000
     23741      2267  TIP3      OH2            -2.0559504571       29.6979243656       28.3487700299  TIP3      2131            0.0000000000
     23742      2267  TIP3      H1             -2.2727321216       30.1284040302       27.4948511062  TIP3      2131            0.0000000000
     23743      2267  TIP3      H2             -1.9337171661       28.7869844911       28.0334690945  TIP3      2131            0.0000000000
     23744      2268  TIP3      OH2           -10.9552721433       29.6429606487       33.1094341950  TIP3      2132            0.0000000000
     23745      2268  TIP3      H1            -10.8296690012       29.6881665159       34.0740069402  TIP3      2132            0.0000000000
     23746      2268  TIP3      H2            -11.2215170576       28.7046984322       33.0054377306  TIP3      2132            0.0000000000
     23747      2269  TIP3      OH2           -13.7403429589       26.7767964036       27.6462524585  TIP3      2133            0.0000000000
     23748      2269  TIP3      H1            -13.1012297265       26.5570834624       28.3520194440  TIP3      2133            0.0000000000
     23749      2269  TIP3      H2            -13.3438268539       26.4275915265       26.8291536383  TIP3      2133            0.0000000000
     23750      2270  TIP3      OH2           -13.1693526627       27.2001614732       22.7833955785  TIP3      2134            0.0000000000
     23751      2270  TIP3      H1            -12.3692520191       27.6571804307       22.4993979784  TIP3      2134            0.0000000000
     23752      2270  TIP3      H2            -13.8459862973       27.9061087846       22.8117811460  TIP3      2134            0.0000000000
     23753      2271  TIP3      OH2            -2.9730392853       31.1567886344       32.8914717078  TIP3      2135            0.0000000000
     23754      2271  TIP3      H1             -2.7288227307       30.5157208539       32.1690226459  TIP3      2135            0.0000000000
     23755      2271  TIP3      H2             -3.3601469295       30.5199879909       33.5450357725  TIP3      2135            0.0000000000
     23756      2272  TIP3      OH2            -5.0963616656       27.5807272206       27.6004083746  TIP3      2136            0.0000000000
     23757      2272  TIP3      H1             -5.9866450493       27.5103322147       27.9812955228  TIP3      2136            0.0000000000
     23758      2272  TIP3      H2             -4.6647946559       26.8076546174       28.0409780303  TIP3      2136            0.0000000000
     23759      2273  TIP3      OH2           -10.9381453192       28.6139676708       26.7033676970  TIP3      2137            0.0000000000
     23760      2273  TIP3      H1            -11.5908132926       28.9576542492       26.0498435406  TIP3      2137            0.0000000000
     23761      2273  TIP3      H2            -10.8478788238       27.6629422713       26.4549698645  TIP3      2137            0.0000000000
     23762      2274  TIP3      OH2            -7.5553502905       29.0076056718       23.7907380453  TIP3      2138            0.0000000000
     23763      2274  TIP3      H1             -6.6607042056       28.6493266738       23.9891832157  TIP3      2138            0.0000000000
     23764      2274  TIP3      H2             -7.4513985042       29.9179669744       24.1019263538  TIP3      2138            0.0000000000
     23765      2275  TIP3      OH2            -1.6926049123       26.6678681638       30.7671189600  TIP3      2139            0.0000000000
     23766      2275  TIP3      H1             -1.8841353382       26.2988556765       31.6522061607  TIP3      2139            0.0000000000
     23767      2275  TIP3      H2             -1.5389358771       25.9026380224       30.1959935533  TIP3      2139            0.0000000000
     23768      2276  TIP3      OH2            -4.6672479410       29.8159161001       29.1333629903  TIP3      2140            0.0000000000
     23769      2276  TIP3      H1             -3.7437908857       29.8326780655       28.8332241956  TIP3      2140            0.0000000000
     23770      2276  TIP3      H2             -4.7625730081       28.8769076728       29.3562706134  TIP3      2140            0.0000000000
     23771      2277  TIP3      OH2           -10.2203805630       26.0681833227       26.1393443506  TIP3      2141            0.0000000000
     23772      2277  TIP3      H1            -10.6978998975       25.2602626946       26.4145024723  TIP3      2141            0.0000000000
     23773      2277  TIP3      H2             -9.5808137652       25.6968567505       25.5053499388  TIP3      2141            0.0000000000
     23774      2278  TIP3      OH2            -5.7987552634       28.3726121076       31.7466353324  TIP3      2142            0.0000000000
     23775      2278  TIP3      H1             -6.4675292915       29.0720894980       31.6547490221  TIP3      2142            0.0000000000
     23776      2278  TIP3      H2             -5.1570545093       28.7889048553       32.3383844279  TIP3      2142            0.0000000000
     23777      2279  TIP3      OH2            -1.2398562765       27.2939232285       21.2795101388  TIP3      2143            0.0000000000
     23778      2279  TIP3      H1             -2.1232334287       26.8637319943       21.3418646901  TIP3      2143            0.0000000000
     23779      2279  TIP3      H2             -1.3596630066       28.0393220849       21.8958041475  TIP3      2143            0.0000000000
     23780      2280  TIP3      OH2            -0.9258034538       29.0937385241       23.4508601013  TIP3      2144            0.0000000000
     23781      2280  TIP3      H1             -0.1495942169       29.2122583226       24.0335499467  TIP3      2144            0.0000000000
     23782      2280  TIP3      H2             -0.9045775404       29.9575263297       22.9869337484  TIP3      2144            0.0000000000
     23783      2281  TIP3      OH2           -13.0687589517       32.5404263374       34.9598428248  TIP3      2145            0.0000000000
     23784      2281  TIP3      H1            -12.9343404014       31.7252945112       35.4722484880  TIP3      2145            0.0000000000
     23785      2281  TIP3      H2            -13.9858705678       32.7928571343       35.1764621733  TIP3      2145            0.0000000000
     23786      2282  TIP3      OH2            -6.2322257498       31.3669038044       37.0460029344  TIP3      2146            0.0000000000
     23787      2282  TIP3      H1             -6.9069812720       31.0802230036       36.3887179948  TIP3      2146            0.0000000000
     23788      2282  TIP3      H2             -5.4500427035       30.9119380390       36.6866776803  TIP3      2146            0.0000000000
     23789      2283  TIP3      OH2             2.9278208921       29.8550004247       22.8689912121  TIP3      2147            0.0000000000
     23790      2283  TIP3      H1              3.0117706359       29.7678501671       21.9070387971  TIP3      2147            0.0000000000
     23791      2283  TIP3      H2              3.7324680621       30.3955961298       22.9955054968  TIP3      2147            0.0000000000
     23792      2284  TIP3      OH2           -11.0638197692       27.0514585182       34.4050661637  TIP3      2148            0.0000000000
     23793      2284  TIP3      H1            -11.9075931143       27.4200832357       34.7390150444  TIP3      2148            0.0000000000
     23794      2284  TIP3      H2            -10.9336363879       26.3499589952       35.0681967878  TIP3      2148            0.0000000000
     23795      2285  TIP3      OH2            -2.4801324195       26.5885095599       33.4628560692  TIP3      2149            0.0000000000
     23796      2285  TIP3      H1             -1.8400495950       26.7294366928       34.1832158702  TIP3      2149            0.0000000000
     23797      2285  TIP3      H2             -2.8218567847       25.6874225529       33.6583297212  TIP3      2149            0.0000000000
     23798      2286  TIP3      OH2            -2.3464125449       26.2476600499       24.9042922030  TIP3      2150            0.0000000000
     23799      2286  TIP3      H1             -2.2756525879       26.9000860565       24.1887675347  TIP3      2150            0.0000000000
     23800      2286  TIP3      H2             -1.7116292918       26.6000464988       25.5673143113  TIP3      2150            0.0000000000
     23801      2287  TIP3      OH2            -5.1507124268       28.2947328397       24.9268338722  TIP3      2151            0.0000000000
     23802      2287  TIP3      H1             -4.2157967724       28.5228526421       24.8366539577  TIP3      2151            0.0000000000
     23803      2287  TIP3      H2             -5.2208194511       28.0619014028       25.8870080169  TIP3      2151            0.0000000000
     23804      2288  TIP3      OH2            -3.9898002306       29.0129872331       34.2517745444  TIP3      2152            0.0000000000
     23805      2288  TIP3      H1             -4.1762282498       28.9435112470       35.2011523149  TIP3      2152            0.0000000000
     23806      2288  TIP3      H2             -3.4091457504       28.2382217911       34.1055629385  TIP3      2152            0.0000000000
     23807      2289  TIP3      OH2            -4.3530368614       24.8331649478       25.9207700026  TIP3      2153            0.0000000000
     23808      2289  TIP3      H1             -4.5975755113       25.0746394117       26.8468654262  TIP3      2153            0.0000000000
     23809      2289  TIP3      H2             -3.5201343897       25.3596795745       25.8129899383  TIP3      2153            0.0000000000
     23810      2290  TIP3      OH2            -8.6739742651       26.0087951091       23.5006852685  TIP3      2154            0.0000000000
     23811      2290  TIP3      H1             -8.6254629069       26.9609906378       23.3513319935  TIP3      2154            0.0000000000
     23812      2290  TIP3      H2             -7.7370092708       25.7550152037       23.4650165273  TIP3      2154            0.0000000000
     23813      2291  TIP3      OH2             1.6101563738       27.0585303326       35.0764004812  TIP3      2155            0.0000000000
     23814      2291  TIP3      H1              0.7319694022       27.4765881139       35.2361002019  TIP3      2155            0.0000000000
     23815      2291  TIP3      H2              1.3921888732       26.5581869897       34.2665164291  TIP3      2155            0.0000000000
     23816      2292  TIP3      OH2             0.4430118791       30.8729813928       28.4681050188  TIP3      2156            0.0000000000
     23817      2292  TIP3      H1             -0.2279094003       30.2081455480       28.7114558913  TIP3      2156            0.0000000000
     23818      2292  TIP3      H2              1.0793187001       30.7495843899       29.2131912169  TIP3      2156            0.0000000000
     23819      2293  TIP3      OH2           -10.8910252231       24.1760232559       30.1346114267  TIP3      2157            0.0000000000
     23820      2293  TIP3      H1            -10.9844014726       24.0746731210       29.1611879091  TIP3      2157            0.0000000000
     23821      2293  TIP3      H2            -11.2138093733       23.2876957753       30.4037446292  TIP3      2157            0.0000000000
     23822      2294  TIP3      OH2           -11.3110747833       31.1418236544       37.0664174619  TIP3      2158            0.0000000000
     23823      2294  TIP3      H1            -11.3612540153       30.2969602599       37.5386113117  TIP3      2158            0.0000000000
     23824      2294  TIP3      H2            -11.5380842598       31.7131822708       37.8270219304  TIP3      2158            0.0000000000
     23825      2295  TIP3      OH2            -7.6517617838       30.7535008604       34.9113025062  TIP3      2159            0.0000000000
     23826      2295  TIP3      H1             -8.3873292950       31.2641318744       34.5409088619  TIP3      2159            0.0000000000
     23827      2295  TIP3      H2             -7.0134146545       30.8509975768       34.1628450695  TIP3      2159            0.0000000000
     23828      2296  TIP3      OH2            -7.2640384744       28.2488381198       35.7397063182  TIP3      2160            0.0000000000
     23829      2296  TIP3      H1             -7.1409274788       27.6637008312       34.9654941389  TIP3      2160            0.0000000000
     23830      2296  TIP3      H2             -7.4065670972       29.1206222075       35.3069500721  TIP3      2160            0.0000000000
     23831      2297  TIP3      OH2            -6.6381637989       26.4865488497       33.5794577947  TIP3      2161            0.0000000000
     23832      2297  TIP3      H1             -6.2687947834       26.9320250378       32.7793974797  TIP3      2161            0.0000000000
     23833      2297  TIP3      H2             -7.5892384369       26.6037084021       33.3811000361  TIP3      2161            0.0000000000
     23834      2298  TIP3      OH2            -5.6081149508       31.6115708111       33.3175291746  TIP3      2162            0.0000000000
     23835      2298  TIP3      H1             -4.6654010575       31.5733526742       33.0676635555  TIP3      2162            0.0000000000
     23836      2298  TIP3      H2             -5.8344552857       32.5406119948       33.1312861813  TIP3      2162            0.0000000000
     23837      2299  TIP3      OH2            -0.6449244685       29.6434589145       38.2899142932  TIP3      2163            0.0000000000
     23838      2299  TIP3      H1             -0.2087002192       28.9320691062       37.7960774571  TIP3      2163            0.0000000000
     23839      2299  TIP3      H2             -0.0040366211       29.8360174326       38.9966354881  TIP3      2163            0.0000000000
     23840      2300  TIP3      OH2            -0.3674243638       32.6381057543       36.0561058368  TIP3      2164            0.0000000000
     23841      2300  TIP3      H1              0.1510626372       33.4506528730       36.1397105769  TIP3      2164            0.0000000000
     23842      2300  TIP3      H2              0.3227390726       32.0193533672       36.3514020268  TIP3      2164            0.0000000000
     23843      2301  TIP3      OH2            -8.7061666118       29.2408877439       38.0455348554  TIP3      2165            0.0000000000
     23844      2301  TIP3      H1             -9.5591557135       28.8093030268       37.8316272013  TIP3      2165            0.0000000000
     23845      2301  TIP3      H2             -8.1535564833       28.8834330819       37.3235012901  TIP3      2165            0.0000000000
     23846      2302  TIP3      OH2            -6.0869253266       23.8367782868       33.7122224695  TIP3      2166            0.0000000000
     23847      2302  TIP3      H1             -6.3587406822       24.7759306145       33.5844433457  TIP3      2166            0.0000000000
     23848      2302  TIP3      H2             -6.8409206200       23.3758984100       33.3144573764  TIP3      2166            0.0000000000
     23849      2303  TIP3      OH2            -5.3154034422       28.3089674750       37.6417401804  TIP3      2167            0.0000000000
     23850      2303  TIP3      H1             -5.8627818132       28.0648529877       38.4110291839  TIP3      2167            0.0000000000
     23851      2303  TIP3      H2             -5.9184693750       28.1017757794       36.8901344849  TIP3      2167            0.0000000000
     23852      2304  TIP3      OH2            -3.0284714084       27.3128689404       36.5810739860  TIP3      2168            0.0000000000
     23853      2304  TIP3      H1             -3.9677712685       27.3635425396       36.8392113587  TIP3      2168            0.0000000000
     23854      2304  TIP3      H2             -2.6586432221       26.7835508166       37.3234437419  TIP3      2168            0.0000000000
     23855      2305  TIP3      OH2            -1.6391914143       25.8235742641       38.5568355924  TIP3      2169            0.0000000000
     23856      2305  TIP3      H1             -1.4230623138       24.8635770455       38.5670803114  TIP3      2169            0.0000000000
     23857      2305  TIP3      H2             -1.2237131713       26.1779206340       39.3697498458  TIP3      2169            0.0000000000
     23858      2306  TIP3      OH2           -10.9963954043       27.5526546506       37.5376714409  TIP3      2170            0.0000000000
     23859      2306  TIP3      H1            -10.5855032111       26.6784741940       37.4343464808  TIP3      2170            0.0000000000
     23860      2306  TIP3      H2            -11.3489067621       27.5089586794       38.4536215338  TIP3      2170            0.0000000000
     23861      2307  TIP3      OH2            -6.7118789066       23.5084910628       36.3957598058  TIP3      2171            0.0000000000
     23862      2307  TIP3      H1             -5.8751107784       23.0540459094       36.5931571590  TIP3      2171            0.0000000000
     23863      2307  TIP3      H2             -6.6761256455       23.4402880795       35.4200424953  TIP3      2171            0.0000000000
     23864      2308  TIP3      OH2            -6.2500267506       24.7696690143       39.3374849039  TIP3      2172            0.0000000000
     23865      2308  TIP3      H1             -6.4039624019       24.3697042063       38.4661583098  TIP3      2172            0.0000000000
     23866      2308  TIP3      H2             -6.7066421585       25.6268953933       39.2171586871  TIP3      2172            0.0000000000
     23867      2309  TIP3      OH2             4.0220516367       32.9706736632       25.8065799034  TIP3      2173            0.0000000000
     23868      2309  TIP3      H1              3.4100632517       32.2100830673       25.9096215275  TIP3      2173            0.0000000000
     23869      2309  TIP3      H2              4.5858231343       32.8223932878       26.5991657410  TIP3      2173            0.0000000000
     23870      2310  TIP3      OH2             2.3482531182       31.0636250999       26.6173061291  TIP3      2174            0.0000000000
     23871      2310  TIP3      H1              2.3518609745       30.1381068403       26.3163737022  TIP3      2174            0.0000000000
     23872      2310  TIP3      H2              1.8423176425       30.9728923036       27.4610593140  TIP3      2174            0.0000000000
     23873      2311  TIP3      OH2             2.1991311020       32.5810236576       37.3464576597  TIP3      2175            0.0000000000
     23874      2311  TIP3      H1              2.7934386485       31.8086905127       37.3248955341  TIP3      2175            0.0000000000
     23875      2311  TIP3      H2              2.5970781422       33.1328911396       36.6427666887  TIP3      2175            0.0000000000
     23876      2312  TIP3      OH2             4.1238900443       30.5959715578       37.4682426498  TIP3      2176            0.0000000000
     23877      2312  TIP3      H1              3.5298917879       30.3156234749       36.7395513960  TIP3      2176            0.0000000000
     23878      2312  TIP3      H2              4.7287849442       29.8077953931       37.4705365575  TIP3      2176            0.0000000000
     23879      2313  TIP3      OH2             1.1859654855       28.8716035768       25.3343976717  TIP3      2177            0.0000000000
     23880      2313  TIP3      H1              1.3919119157       27.9055474017       25.2975936963  TIP3      2177            0.0000000000
     23881      2313  TIP3      H2              1.7761324841       29.1997414506       24.6251591813  TIP3      2177            0.0000000000
     23882      2314  TIP3      OH2             2.2173345652       29.8672079129       30.2006537808  TIP3      2178            0.0000000000
     23883      2314  TIP3      H1              3.1675168239       29.7154695968       30.3528979826  TIP3      2178            0.0000000000
     23884      2314  TIP3      H2              1.9008369561       29.5133770848       31.0594001134  TIP3      2178            0.0000000000
     23885      2315  TIP3      OH2             1.8700180066       29.4499046371       32.8785074160  TIP3      2179            0.0000000000
     23886      2315  TIP3      H1              1.0156769186       29.8725897996       33.1023781661  TIP3      2179            0.0000000000
     23887      2315  TIP3      H2              2.4643058138       30.2403059548       32.9001700762  TIP3      2179            0.0000000000
     23888      2316  TIP3      OH2           -13.1809688030       28.1238051202       35.8236454654  TIP3      2180            0.0000000000
     23889      2316  TIP3      H1            -12.5158801319       28.0003748675       36.5358101312  TIP3      2180            0.0000000000
     23890      2316  TIP3      H2            -13.6866304863       27.2849394675       35.9392835403  TIP3      2180            0.0000000000
     23891      2317  TIP3      OH2             5.2841959937       24.3067615495       38.4422566151  TIP3      2181            0.0000000000
     23892      2317  TIP3      H1              5.2758426145       23.4809752267       37.9282422928  TIP3      2181            0.0000000000
     23893      2317  TIP3      H2              5.1684917164       24.9348695936       37.7072020575  TIP3      2181            0.0000000000
     23894      2318  TIP3      OH2             1.4799336175       26.1819980685       24.9192492817  TIP3      2182            0.0000000000
     23895      2318  TIP3      H1              2.1881528380       25.7188277603       25.4073503113  TIP3      2182            0.0000000000
     23896      2318  TIP3      H2              0.9288603699       25.4514170105       24.5642184510  TIP3      2182            0.0000000000
     23897      2319  TIP3      OH2           -12.3882959485       26.4020470807       30.0088560539  TIP3      2183            0.0000000000
     23898      2319  TIP3      H1            -11.8921009911       25.5554953637       30.0806382709  TIP3      2183            0.0000000000
     23899      2319  TIP3      H2            -11.6771896722       27.0555169493       30.0847586543  TIP3      2183            0.0000000000
     23900      2320  TIP3      OH2           -13.6764952724       29.3770239366       31.2297675897  TIP3      2184            0.0000000000
     23901      2320  TIP3      H1            -13.1904826616       29.3432781403       30.3835763507  TIP3      2184            0.0000000000
     23902      2320  TIP3      H2            -13.4663818977       30.2652498739       31.5298510660  TIP3      2184            0.0000000000
     23903      2321  TIP3      OH2             3.9938155487       26.2655929549       36.5394536042  TIP3      2185            0.0000000000
     23904      2321  TIP3      H1              3.3129324434       26.4402589207       37.2303626445  TIP3      2185            0.0000000000
     23905      2321  TIP3      H2              3.4485278242       25.8596958747       35.8445559042  TIP3      2185            0.0000000000
     23906      2322  TIP3      OH2           -13.5822174819       25.8566665417       25.0524609017  TIP3      2186            0.0000000000
     23907      2322  TIP3      H1            -14.5383856301       25.7757534707       24.9400242245  TIP3      2186            0.0000000000
     23908      2322  TIP3      H2            -13.3804087705       26.4208340400       24.2839347432  TIP3      2186            0.0000000000
     23909      2323  TIP3      OH2           -13.6085996326       24.2611281102       33.0807965325  TIP3      2187            0.0000000000
     23910      2323  TIP3      H1            -14.3290780209       23.8755553567       33.6050268628  TIP3      2187            0.0000000000
     23911      2323  TIP3      H2            -14.0178094440       25.0613689584       32.7162163145  TIP3      2187            0.0000000000
     23912      2324  TIP3      OH2             2.6127788063       23.7690117262       34.8555721523  TIP3      2188            0.0000000000
     23913      2324  TIP3      H1              3.0122907978       24.4292125356       34.2760847027  TIP3      2188            0.0000000000
     23914      2324  TIP3      H2              2.8087500955       22.9391930662       34.3823584864  TIP3      2188            0.0000000000
     23915      2325  TIP3      OH2            -4.3947587672       25.2438756931       28.5219650798  TIP3      2189            0.0000000000
     23916      2325  TIP3      H1             -4.8846696817       24.6056277767       29.0923597897  TIP3      2189            0.0000000000
     23917      2325  TIP3      H2             -3.4457619937       25.0278718340       28.6561626314  TIP3      2189            0.0000000000
     23918      2326  TIP3      OH2             1.1640597896       22.9427404947       28.4675514460  TIP3      2190            0.0000000000
     23919      2326  TIP3      H1              1.9295508338       23.4681744096       28.8115659372  TIP3      2190            0.0000000000
     23920      2326  TIP3      H2              0.4214697218       23.4585737489       28.8045883072  TIP3      2190            0.0000000000
     23921      2327  TIP3      OH2             3.3078211951       24.9337671422       26.9666000107  TIP3      2191            0.0000000000
     23922      2327  TIP3      H1              3.7150710794       24.0606741479       26.7979661776  TIP3      2191            0.0000000000
     23923      2327  TIP3      H2              3.6862206778       25.1567986619       27.8322510770  TIP3      2191            0.0000000000
     23924      2328  TIP3      OH2           -11.4958164741       23.7814624108       27.4216085285  TIP3      2192            0.0000000000
     23925      2328  TIP3      H1            -12.3884187070       23.7075434134       27.0373921728  TIP3      2192            0.0000000000
     23926      2328  TIP3      H2            -11.0854010988       22.9320904318       27.1585857343  TIP3      2192            0.0000000000
     23927      2329  TIP3      OH2           -12.4961213163       23.7470029022       22.7069350991  TIP3      2193            0.0000000000
     23928      2329  TIP3      H1            -13.0071565038       23.9828030866       21.9060372128  TIP3      2193            0.0000000000
     23929      2329  TIP3      H2            -13.1607845572       23.8829313118       23.3945803512  TIP3      2193            0.0000000000
     23930      2330  TIP3      OH2            -7.5042974032       23.7017345183       26.6136295408  TIP3      2194            0.0000000000
     23931      2330  TIP3      H1             -7.0551223061       24.2306841505       25.9515302397  TIP3      2194            0.0000000000
     23932      2330  TIP3      H2             -6.8360323868       23.6706228365       27.3128973542  TIP3      2194            0.0000000000
     23933      2331  TIP3      OH2            -1.7789575196       24.5556942951       28.1891920206  TIP3      2195            0.0000000000
     23934      2331  TIP3      H1             -1.0710832888       24.3771626654       27.5548013668  TIP3      2195            0.0000000000
     23935      2331  TIP3      H2             -1.9864826426       23.6370159888       28.5013428734  TIP3      2195            0.0000000000
     23936      2332  TIP3      OH2            -0.3423697539       24.5963418459       23.8563708517  TIP3      2196            0.0000000000
     23937      2332  TIP3      H1             -1.1535744647       24.9276614393       24.2932973087  TIP3      2196            0.0000000000
     23938      2332  TIP3      H2             -0.5224201208       23.6307543602       23.8761062516  TIP3      2196            0.0000000000
     23939      2333  TIP3      OH2            -5.6607615210       25.6036392205       23.7352406899  TIP3      2197            0.0000000000
     23940      2333  TIP3      H1             -5.1130798594       25.2762903202       24.4819298427  TIP3      2197            0.0000000000
     23941      2333  TIP3      H2             -5.4766229855       26.5545095570       23.8589514818  TIP3      2197            0.0000000000
     23942      2334  TIP3      OH2           -11.4023394435       24.5683641768       36.2668262626  TIP3      2198            0.0000000000
     23943      2334  TIP3      H1            -11.9303934756       23.7493313374       36.3402845161  TIP3      2198            0.0000000000
     23944      2334  TIP3      H2            -10.7293672928       24.4233714451       36.9652429077  TIP3      2198            0.0000000000
     23945      2335  TIP3      OH2            -9.4861752011       24.0225681044       38.1731773045  TIP3      2199            0.0000000000
     23946      2335  TIP3      H1             -8.7181843786       23.7223752055       37.6464941377  TIP3      2199            0.0000000000
     23947      2335  TIP3      H2             -9.7794431493       23.1701946101       38.5431298108  TIP3      2199            0.0000000000
     23948      2336  TIP3      OH2            -0.9925841466       23.2294309778       38.3033331971  TIP3      2200            0.0000000000
     23949      2336  TIP3      H1             -0.8471263854       22.7444472719       39.1359666519  TIP3      2200            0.0000000000
     23950      2336  TIP3      H2             -0.0615392022       23.2805820325       37.9757827750  TIP3      2200            0.0000000000
     23951      2337  TIP3      OH2            16.1794509307       32.1718406916       29.0413647807  TIP3      2201            0.0000000000
     23952      2337  TIP3      H1             16.4942219131       31.2418020013       29.0793497859  TIP3      2201            0.0000000000
     23953      2337  TIP3      H2             15.2506843014       32.0555744048       29.2756883006  TIP3      2201            0.0000000000
     23954      2338  TIP3      OH2             7.7136198225       32.1249588139       31.2030433146  TIP3      2202            0.0000000000
     23955      2338  TIP3      H1              7.6001177627       31.2845742958       31.6769943392  TIP3      2202            0.0000000000
     23956      2338  TIP3      H2              8.1700827310       32.6287375102       31.8919253472  TIP3      2202            0.0000000000
     23957      2339  TIP3      OH2             5.9842362469       30.0983653871       25.5292466473  TIP3      2203            0.0000000000
     23958      2339  TIP3      H1              5.4527370597       30.6672239052       26.1113775762  TIP3      2203            0.0000000000
     23959      2339  TIP3      H2              5.3244213870       29.7291287246       24.9167546014  TIP3      2203            0.0000000000
     23960      2340  TIP3      OH2             5.7408192744       31.9872165597       27.7218682599  TIP3      2204            0.0000000000
     23961      2340  TIP3      H1              5.8772914483       31.3375015202       28.4473023191  TIP3      2204            0.0000000000
     23962      2340  TIP3      H2              6.5953651472       32.4492112334       27.7558261098  TIP3      2204            0.0000000000
     23963      2341  TIP3      OH2            22.0986195828       26.4599485318       30.9320505891  TIP3      2205            0.0000000000
     23964      2341  TIP3      H1             22.4857143300       26.8023875983       31.7650086263  TIP3      2205            0.0000000000
     23965      2341  TIP3      H2             22.8696453379       26.4812571945       30.3407978121  TIP3      2205            0.0000000000
     23966      2342  TIP3      OH2            17.1805363005       29.4615490835       31.2183433879  TIP3      2206            0.0000000000
     23967      2342  TIP3      H1             17.0737979009       28.5391704554       31.5272374376  TIP3      2206            0.0000000000
     23968      2342  TIP3      H2             17.3029293758       29.3160868551       30.2628468390  TIP3      2206            0.0000000000
     23969      2343  TIP3      OH2            10.5493737333       26.9432559791       27.7436559515  TIP3      2207            0.0000000000
     23970      2343  TIP3      H1             10.6326834123       27.8422202398       27.3660727227  TIP3      2207            0.0000000000
     23971      2343  TIP3      H2              9.8597002641       26.5869598913       27.1467165441  TIP3      2207            0.0000000000
     23972      2344  TIP3      OH2            17.5820387849       27.4983605941       27.1202903002  TIP3      2208            0.0000000000
     23973      2344  TIP3      H1             18.0883356793       27.0313427065       27.8134893184  TIP3      2208            0.0000000000
     23974      2344  TIP3      H2             18.2935168074       28.0574757411       26.7467209102  TIP3      2208            0.0000000000
     23975      2345  TIP3      OH2             6.7707319096       29.9122623973       29.1392749052  TIP3      2209            0.0000000000
     23976      2345  TIP3      H1              7.4182957580       29.3663262902       29.6353926498  TIP3      2209            0.0000000000
     23977      2345  TIP3      H2              6.9153796242       29.5487157982       28.2433419567  TIP3      2209            0.0000000000
     23978      2346  TIP3      OH2            11.6258281016       31.2394654362       28.2788848876  TIP3      2210            0.0000000000
     23979      2346  TIP3      H1             12.4752833562       30.7691602524       28.4078620769  TIP3      2210            0.0000000000
     23980      2346  TIP3      H2             11.1674682777       30.6157452840       27.6739941611  TIP3      2210            0.0000000000
     23981      2347  TIP3      OH2            22.5250162281       27.8872807650       33.4442693657  TIP3      2211            0.0000000000
     23982      2347  TIP3      H1             22.0473510593       28.6626478901       33.0762192136  TIP3      2211            0.0000000000
     23983      2347  TIP3      H2             22.8552371023       28.2554362571       34.2781522821  TIP3      2211            0.0000000000
     23984      2348  TIP3      OH2             9.1950631311       26.3867461132       32.1367410976  TIP3      2212            0.0000000000
     23985      2348  TIP3      H1              8.5727284995       26.7828991721       31.4941801183  TIP3      2212            0.0000000000
     23986      2348  TIP3      H2              8.6690979575       26.5136235430       32.9579537592  TIP3      2212            0.0000000000
     23987      2349  TIP3      OH2            19.8837248065       27.5069426300       28.9114881630  TIP3      2213            0.0000000000
     23988      2349  TIP3      H1             20.4188903072       26.7033659726       28.9864345446  TIP3      2213            0.0000000000
     23989      2349  TIP3      H2             20.4173582048       28.1424059369       29.4358739874  TIP3      2213            0.0000000000
     23990      2350  TIP3      OH2             8.6897085046       28.1687382999       30.0434692513  TIP3      2214            0.0000000000
     23991      2350  TIP3      H1              9.3692382844       28.5985930981       30.6055297296  TIP3      2214            0.0000000000
     23992      2350  TIP3      H2              9.2308202303       27.8509164855       29.3010072899  TIP3      2214            0.0000000000
     23993      2351  TIP3      OH2            19.6179614646       25.7795510664       32.0268232721  TIP3      2215            0.0000000000
     23994      2351  TIP3      H1             18.8715856487       26.1930209401       31.5333036324  TIP3      2215            0.0000000000
     23995      2351  TIP3      H2             20.4109272202       26.2002102631       31.6369634743  TIP3      2215            0.0000000000
     23996      2352  TIP3      OH2            12.5556740893       23.5236703449       29.4423847677  TIP3      2216            0.0000000000
     23997      2352  TIP3      H1             12.2359869479       22.6572757643       29.7610100240  TIP3      2216            0.0000000000
     23998      2352  TIP3      H2             11.8142132993       24.1046506396       29.7513706257  TIP3      2216            0.0000000000
     23999      2353  TIP3      OH2            15.5957898818       32.3446371246       23.9944789594  TIP3      2217            0.0000000000
     24000      2353  TIP3      H1             15.2467633808       33.0434005816       24.5958000686  TIP3      2217            0.0000000000
     24001      2353  TIP3      H2             15.7662185189       32.8416951605       23.1829798275  TIP3      2217            0.0000000000
     24002      2354  TIP3      OH2            21.9643103815       32.0179605555       32.3302239251  TIP3      2218            0.0000000000
     24003      2354  TIP3      H1             22.5966586496       32.7602703844       32.4664704161  TIP3      2218            0.0000000000
     24004      2354  TIP3      H2             21.9984860938       31.9824044666       31.3594516735  TIP3      2218            0.0000000000
     24005      2355  TIP3      OH2            18.8643100948       32.1434304874       25.8681662808  TIP3      2219            0.0000000000
     24006      2355  TIP3      H1             18.6611389643       32.4648802494       26.7710789552  TIP3      2219            0.0000000000
     24007      2355  TIP3      H2             19.7632211211       31.7909705679       25.9656324343  TIP3      2219            0.0000000000
     24008      2356  TIP3      OH2            18.3880909208       31.2346456201       34.0742967471  TIP3      2220            0.0000000000
     24009      2356  TIP3      H1             18.2013352785       31.4313713381       35.0161073302  TIP3      2220            0.0000000000
     24010      2356  TIP3      H2             17.4998362925       31.2787496425       33.6644743952  TIP3      2220            0.0000000000
     24011      2357  TIP3      OH2            10.9354520274       31.7769280262       30.8479231466  TIP3      2221            0.0000000000
     24012      2357  TIP3      H1             10.9753667019       31.5181958101       29.8997659437  TIP3      2221            0.0000000000
     24013      2357  TIP3      H2             10.9714921606       32.7444673428       30.7402594488  TIP3      2221            0.0000000000
     24014      2358  TIP3      OH2             9.0934089709       32.3522379306       34.4404020092  TIP3      2222            0.0000000000
     24015      2358  TIP3      H1              9.4956968232       33.0249658821       35.0221038235  TIP3      2222            0.0000000000
     24016      2358  TIP3      H2              8.2481503894       32.1834449159       34.8827258404  TIP3      2222            0.0000000000
     24017      2359  TIP3      OH2             8.1546716739       31.8928714179       25.3523449494  TIP3      2223            0.0000000000
     24018      2359  TIP3      H1              8.5988904745       31.7077078036       24.5126214252  TIP3      2223            0.0000000000
     24019      2359  TIP3      H2              7.4896070022       31.1726910225       25.4470099643  TIP3      2223            0.0000000000
     24020      2360  TIP3      OH2            20.7899633342       29.3750440117       36.0111913502  TIP3      2224            0.0000000000
     24021      2360  TIP3      H1             20.0275151394       29.6836223894       35.4918437941  TIP3      2224            0.0000000000
     24022      2360  TIP3      H2             20.7657594547       28.4194517954       35.7804386942  TIP3      2224            0.0000000000
     24023      2361  TIP3      OH2            10.5322820107       24.8658646808       30.4559365923  TIP3      2225            0.0000000000
     24024      2361  TIP3      H1              9.6982918541       24.5737760314       30.0104061101  TIP3      2225            0.0000000000
     24025      2361  TIP3      H2             10.2004998393       25.6458725643       30.9375118933  TIP3      2225            0.0000000000
     24026      2362  TIP3      OH2            15.4816613258       23.9362582866       33.8391815570  TIP3      2226            0.0000000000
     24027      2362  TIP3      H1             16.0336385240       23.5436016960       34.5637858695  TIP3      2226            0.0000000000
     24028      2362  TIP3      H2             14.5801983949       23.8704609769       34.2046875891  TIP3      2226            0.0000000000
     24029      2363  TIP3      OH2            17.7617376633       28.2037650814       35.1904118072  TIP3      2227            0.0000000000
     24030      2363  TIP3      H1             16.9989605750       27.9231324844       35.7477819332  TIP3      2227            0.0000000000
     24031      2363  TIP3      H2             17.4695860286       29.0588289178       34.8439466674  TIP3      2227            0.0000000000
     24032      2364  TIP3      OH2            18.7246833068       32.1457213094       21.5045847728  TIP3      2228            0.0000000000
     24033      2364  TIP3      H1             18.1491641932       31.4798439700       21.0647442780  TIP3      2228            0.0000000000
     24034      2364  TIP3      H2             19.5981200545       31.7806878482       21.2908498199  TIP3      2228            0.0000000000
     24035      2365  TIP3      OH2            10.4431071791       29.1708541725       31.9825096885  TIP3      2229            0.0000000000
     24036      2365  TIP3      H1              9.6930790902       29.3714113490       32.5797623150  TIP3      2229            0.0000000000
     24037      2365  TIP3      H2             10.5708217119       30.0475508174       31.5604017601  TIP3      2229            0.0000000000
     24038      2366  TIP3      OH2            10.5066334348       29.3868338120       26.5176786798  TIP3      2230            0.0000000000
     24039      2366  TIP3      H1              9.5095057832       29.3805368282       26.5088713727  TIP3      2230            0.0000000000
     24040      2366  TIP3      H2             10.6896027470       29.1484725851       25.5949560260  TIP3      2230            0.0000000000
     24041      2367  TIP3      OH2            15.6153441841       30.2496110133       25.7085276439  TIP3      2231            0.0000000000
     24042      2367  TIP3      H1             15.5072912914       31.1034976803       25.2220966510  TIP3      2231            0.0000000000
     24043      2367  TIP3      H2             16.2978133134       29.8384870139       25.1329567041  TIP3      2231            0.0000000000
     24044      2368  TIP3      OH2            15.1185439085       30.2713872719       36.7826291010  TIP3      2232            0.0000000000
     24045      2368  TIP3      H1             14.7422716555       29.5665963035       37.3485395263  TIP3      2232            0.0000000000
     24046      2368  TIP3      H2             15.8870575117       30.5421748452       37.3139824837  TIP3      2232            0.0000000000
     24047      2369  TIP3      OH2            16.6350167546       29.5707137133       28.4602479318  TIP3      2233            0.0000000000
     24048      2369  TIP3      H1             16.2658226054       29.9122820534       27.6179180466  TIP3      2233            0.0000000000
     24049      2369  TIP3      H2             16.8565693297       28.6656308067       28.1392460138  TIP3      2233            0.0000000000
     24050      2370  TIP3      OH2             8.0230327205       29.5666248197       33.2149099312  TIP3      2234            0.0000000000
     24051      2370  TIP3      H1              8.1047790585       29.9741440431       34.0877228178  TIP3      2234            0.0000000000
     24052      2370  TIP3      H2              7.7918375667       28.6480081274       33.4581123180  TIP3      2234            0.0000000000
     24053      2371  TIP3      OH2             5.1608408331       27.2827363977       27.6806964851  TIP3      2235            0.0000000000
     24054      2371  TIP3      H1              5.6468864858       26.5604266837       28.0832728476  TIP3      2235            0.0000000000
     24055      2371  TIP3      H2              5.0877077053       26.9974869370       26.7464634958  TIP3      2235            0.0000000000
     24056      2372  TIP3      OH2             6.4815712737       28.3030639308       22.9489654623  TIP3      2236            0.0000000000
     24057      2372  TIP3      H1              6.1727249210       29.1813392814       22.6337208637  TIP3      2236            0.0000000000
     24058      2372  TIP3      H2              5.9499855472       27.6735983612       22.4501242481  TIP3      2236            0.0000000000
     24059      2373  TIP3      OH2            15.9167625682       31.1389501460       32.8691246845  TIP3      2237            0.0000000000
     24060      2373  TIP3      H1             16.4365580474       30.6515851118       32.1830306644  TIP3      2237            0.0000000000
     24061      2373  TIP3      H2             15.5531477507       30.3916655739       33.4106360918  TIP3      2237            0.0000000000
     24062      2374  TIP3      OH2            13.4075717593       26.8355550582       27.4791645337  TIP3      2238            0.0000000000
     24063      2374  TIP3      H1             12.4985796498       26.9351390869       27.8355006492  TIP3      2238            0.0000000000
     24064      2374  TIP3      H2             13.8637252131       26.3516111120       28.2047826325  TIP3      2238            0.0000000000
     24065      2375  TIP3      OH2             7.9579713851       28.7113900271       26.6370466735  TIP3      2239            0.0000000000
     24066      2375  TIP3      H1              7.2153128476       29.0494631733       26.0973206277  TIP3      2239            0.0000000000
     24067      2375  TIP3      H2              8.1218877419       27.8410812773       26.1965560411  TIP3      2239            0.0000000000
     24068      2376  TIP3      OH2            11.1050161847       28.7342461306       23.6522948237  TIP3      2240            0.0000000000
     24069      2376  TIP3      H1             11.9823943219       29.1034687225       23.8110997551  TIP3      2240            0.0000000000
     24070      2376  TIP3      H2             10.6955669506       29.3927385245       23.0555315610  TIP3      2240            0.0000000000
     24071      2377  TIP3      OH2            17.4018626169       26.3764094525       30.6956508792  TIP3      2241            0.0000000000
     24072      2377  TIP3      H1             16.8640375945       26.1046593961       31.4781770227  TIP3      2241            0.0000000000
     24073      2377  TIP3      H2             17.2073874035       25.6979940786       30.0263950126  TIP3      2241            0.0000000000
     24074      2378  TIP3      OH2            10.1654292390       30.0650671712       21.2249987930  TIP3      2242            0.0000000000
     24075      2378  TIP3      H1              9.8135480125       30.6809795471       20.5488700162  TIP3      2242            0.0000000000
     24076      2378  TIP3      H2             11.1234549400       30.1870371031       21.0581053964  TIP3      2242            0.0000000000
     24077      2379  TIP3      OH2            13.9184607243       29.6661839821       28.9947604446  TIP3      2243            0.0000000000
     24078      2379  TIP3      H1             14.8566465988       29.4551444794       28.7883392938  TIP3      2243            0.0000000000
     24079      2379  TIP3      H2             13.6829451412       28.9775798123       29.6490065109  TIP3      2243            0.0000000000
     24080      2380  TIP3      OH2             8.7194242887       26.3065222749       25.7631381351  TIP3      2244            0.0000000000
     24081      2380  TIP3      H1              8.4365756733       25.4030851684       26.0355575789  TIP3      2244            0.0000000000
     24082      2380  TIP3      H2              9.2283550857       26.1227934103       24.9456502321  TIP3      2244            0.0000000000
     24083      2381  TIP3      OH2            13.0521993137       28.2417293521       31.5553571114  TIP3      2245            0.0000000000
     24084      2381  TIP3      H1             12.2949666604       28.8305887036       31.7423634268  TIP3      2245            0.0000000000
     24085      2381  TIP3      H2             13.6343492978       28.4582498307       32.2957466617  TIP3      2245            0.0000000000
     24086      2382  TIP3      OH2            17.3981375845       29.3404117079       23.7675997581  TIP3      2246            0.0000000000
     24087      2382  TIP3      H1             18.3470388815       29.2067960028       23.9047235927  TIP3      2246            0.0000000000
     24088      2382  TIP3      H2             17.4184871764       30.1431511590       23.2129438688  TIP3      2246            0.0000000000
     24089      2383  TIP3      OH2             5.3063034069       32.0465769238       34.8057384818  TIP3      2247            0.0000000000
     24090      2383  TIP3      H1              5.4990649782       31.4943765283       35.5843027990  TIP3      2247            0.0000000000
     24091      2383  TIP3      H2              4.6478074924       31.5125657702       34.3171290164  TIP3      2247            0.0000000000
     24092      2384  TIP3      OH2            12.6009724245       31.4536556332       36.6033115311  TIP3      2248            0.0000000000
     24093      2384  TIP3      H1             12.1019463788       31.1087345081       35.8350153882  TIP3      2248            0.0000000000
     24094      2384  TIP3      H2             13.4734495182       31.0119277006       36.5146258969  TIP3      2248            0.0000000000
     24095      2385  TIP3      OH2            22.5219063951       29.1814656554       24.1424238650  TIP3      2249            0.0000000000
     24096      2385  TIP3      H1             23.1879051045       28.5627742682       23.8012091112  TIP3      2249            0.0000000000
     24097      2385  TIP3      H2             22.4922409638       29.8106660499       23.3820747933  TIP3      2249            0.0000000000
     24098      2386  TIP3      OH2             7.6108177858       26.9965025771       34.3156052153  TIP3      2250            0.0000000000
     24099      2386  TIP3      H1              6.8320134734       27.3658912782       34.7750501026  TIP3      2250            0.0000000000
     24100      2386  TIP3      H2              7.7997194741       26.2410707277       34.9008749138  TIP3      2250            0.0000000000
     24101      2387  TIP3      OH2            16.4752750498       26.2818109222       33.2141290579  TIP3      2251            0.0000000000
     24102      2387  TIP3      H1             17.1372433602       26.4683843593       33.8908989095  TIP3      2251            0.0000000000
     24103      2387  TIP3      H2             16.0554023333       25.4566044781       33.5540919623  TIP3      2251            0.0000000000
     24104      2388  TIP3      OH2            16.7109819666       26.4965963848       24.7525942533  TIP3      2252            0.0000000000
     24105      2388  TIP3      H1             17.1736699444       27.2042598456       24.2719790316  TIP3      2252            0.0000000000
     24106      2388  TIP3      H2             17.0503312574       26.6766972850       25.6605160919  TIP3      2252            0.0000000000
     24107      2389  TIP3      OH2            13.8371164640       28.3083988614       25.0933741348  TIP3      2253            0.0000000000
     24108      2389  TIP3      H1             14.4238974192       29.0677674439       25.3104735588  TIP3      2253            0.0000000000
     24109      2389  TIP3      H2             13.7122255818       27.9072779774       25.9817593095  TIP3      2253            0.0000000000
     24110      2390  TIP3      OH2            15.0544945770       29.0715781840       34.2716125894  TIP3      2254            0.0000000000
     24111      2390  TIP3      H1             14.8940133121       29.3730927163       35.1946101931  TIP3      2254            0.0000000000
     24112      2390  TIP3      H2             15.4002421115       28.1678506336       34.3778937738  TIP3      2254            0.0000000000
     24113      2391  TIP3      OH2            14.5654133832       25.0339415606       25.7607168894  TIP3      2255            0.0000000000
     24114      2391  TIP3      H1             14.1225598466       25.7092674498       26.3263201691  TIP3      2255            0.0000000000
     24115      2391  TIP3      H2             15.4076624880       25.5092999831       25.5660937148  TIP3      2255            0.0000000000
     24116      2392  TIP3      OH2            10.4860615470       26.0938307778       23.5060387432  TIP3      2256            0.0000000000
     24117      2392  TIP3      H1             10.4603577952       27.0707542616       23.4647935511  TIP3      2256            0.0000000000
     24118      2392  TIP3      H2             11.4121510275       25.9264853060       23.2735018843  TIP3      2256            0.0000000000
     24119      2393  TIP3      OH2            20.5711858816       26.8457825629       35.1452541269  TIP3      2257            0.0000000000
     24120      2393  TIP3      H1             19.5982971684       26.8812882931       35.1524793223  TIP3      2257            0.0000000000
     24121      2393  TIP3      H2             20.8106017258       27.1606406682       34.2506700026  TIP3      2257            0.0000000000
     24122      2394  TIP3      OH2            19.7670684633       31.0112805569       29.0234214192  TIP3      2258            0.0000000000
     24123      2394  TIP3      H1             18.8810433976       30.6893769164       29.2192053996  TIP3      2258            0.0000000000
     24124      2394  TIP3      H2             20.3473938543       30.4079565708       29.5438834448  TIP3      2258            0.0000000000
     24125      2395  TIP3      OH2             8.1649697354       23.9765923418       29.6419139545  TIP3      2259            0.0000000000
     24126      2395  TIP3      H1              8.0348977538       23.9210692432       28.6717142617  TIP3      2259            0.0000000000
     24127      2395  TIP3      H2              7.7483518445       23.1321652248       29.9308208089  TIP3      2259            0.0000000000
     24128      2396  TIP3      OH2             7.3187595755       31.2923312953       37.3717300457  TIP3      2260            0.0000000000
     24129      2396  TIP3      H1              7.4157764450       30.3563635181       37.6087861022  TIP3      2260            0.0000000000
     24130      2396  TIP3      H2              7.2369969520       31.6826662288       38.2716955072  TIP3      2260            0.0000000000
     24131      2397  TIP3      OH2            10.7002392317       32.6467368552       22.6926568455  TIP3      2261            0.0000000000
     24132      2397  TIP3      H1             11.4068414661       32.7501374459       23.3469189453  TIP3      2261            0.0000000000
     24133      2397  TIP3      H2             11.1985481244       32.4038887733       21.8900370623  TIP3      2261            0.0000000000
     24134      2398  TIP3      OH2            11.1140259029       30.5581110658       34.5549334994  TIP3      2262            0.0000000000
     24135      2398  TIP3      H1             10.3598610489       31.1673278514       34.4275796789  TIP3      2262            0.0000000000
     24136      2398  TIP3      H2             11.6267763557       30.7481386003       33.7316746186  TIP3      2262            0.0000000000
     24137      2399  TIP3      OH2            12.7768340756       31.0039854252       20.6949738440  TIP3      2263            0.0000000000
     24138      2399  TIP3      H1             12.7812166272       30.8748568158       19.7129929204  TIP3      2263            0.0000000000
     24139      2399  TIP3      H2             13.6662526710       31.3970374886       20.8004483067  TIP3      2263            0.0000000000
     24140      2400  TIP3      OH2            11.7407907037       28.1425428452       35.5557500277  TIP3      2264            0.0000000000
     24141      2400  TIP3      H1             11.8102571743       27.5511356309       34.7711545515  TIP3      2264            0.0000000000
     24142      2400  TIP3      H2             11.5562131423       29.0012758931       35.1196285363  TIP3      2264            0.0000000000
     24143      2401  TIP3      OH2            12.0257949067       26.4375128180       33.3581617564  TIP3      2265            0.0000000000
     24144      2401  TIP3      H1             12.4377896801       26.8067045644       32.5448853408  TIP3      2265            0.0000000000
     24145      2401  TIP3      H2             11.0915865114       26.4454258419       33.0793737597  TIP3      2265            0.0000000000
     24146      2402  TIP3      OH2            13.1003411517       31.2358308256       32.9589764492  TIP3      2266            0.0000000000
     24147      2402  TIP3      H1             14.0678310552       31.2352890076       32.8468737002  TIP3      2266            0.0000000000
     24148      2402  TIP3      H2             12.8976693255       32.1618295514       32.7307628737  TIP3      2266            0.0000000000
     24149      2403  TIP3      OH2            18.0177384447       29.4484128315       38.2287344407  TIP3      2267            0.0000000000
     24150      2403  TIP3      H1             18.3989882168       28.5628329415       38.2837519622  TIP3      2267            0.0000000000
     24151      2403  TIP3      H2             18.8128984759       29.9923611164       38.2838617231  TIP3      2267            0.0000000000
     24152      2404  TIP3      OH2            18.5405732295       32.2778208094       36.5793094248  TIP3      2268            0.0000000000
     24153      2404  TIP3      H1             18.6784942565       33.0942542680       36.0789827517  TIP3      2268            0.0000000000
     24154      2404  TIP3      H2             19.4089251236       32.2370744082       37.0221116233  TIP3      2268            0.0000000000
     24155      2405  TIP3      OH2             9.8202577003       28.9737915000       37.5140009849  TIP3      2269            0.0000000000
     24156      2405  TIP3      H1              9.0605403795       28.3982681153       37.2485614455  TIP3      2269            0.0000000000
     24157      2405  TIP3      H2             10.4945654907       28.7102757789       36.8549060468  TIP3      2269            0.0000000000
     24158      2406  TIP3      OH2            12.6087691307       23.7452726045       33.6660527627  TIP3      2270            0.0000000000
     24159      2406  TIP3      H1             12.4393002432       24.7055747025       33.5635036571  TIP3      2270            0.0000000000
     24160      2406  TIP3      H2             11.8169614551       23.3744353091       33.2562953515  TIP3      2270            0.0000000000
     24161      2407  TIP3      OH2            13.5781702577       28.1685768315       37.5555364605  TIP3      2271            0.0000000000
     24162      2407  TIP3      H1             12.9211578135       27.8417247748       38.1978601222  TIP3      2271            0.0000000000
     24163      2407  TIP3      H2             13.0559437148       28.1316236900       36.7238573568  TIP3      2271            0.0000000000
     24164      2408  TIP3      OH2            15.6967358927       26.9239332872       36.4219506228  TIP3      2272            0.0000000000
     24165      2408  TIP3      H1             14.8657385322       27.2017219914       36.8522784214  TIP3      2272            0.0000000000
     24166      2408  TIP3      H2             16.1532046056       26.4540133142       37.1522061520  TIP3      2272            0.0000000000
     24167      2409  TIP3      OH2            17.3821205993       25.8607814957       38.5482278198  TIP3      2273            0.0000000000
     24168      2409  TIP3      H1             17.7899516917       24.9637540396       38.5043066733  TIP3      2273            0.0000000000
     24169      2409  TIP3      H2             17.3960626711       26.0691841498       39.4946427538  TIP3      2273            0.0000000000
     24170      2410  TIP3      OH2             7.7768918355       27.2905664817       37.3945263372  TIP3      2274            0.0000000000
     24171      2410  TIP3      H1              7.6784347166       26.4112760794       36.9816910577  TIP3      2274            0.0000000000
     24172      2410  TIP3      H2              7.8027967806       27.0394303957       38.3448199121  TIP3      2274            0.0000000000
     24173      2411  TIP3      OH2            12.2321315911       23.5777883707       36.4821811266  TIP3      2275            0.0000000000
     24174      2411  TIP3      H1             13.0431993649       23.0662497631       36.6258835924  TIP3      2275            0.0000000000
     24175      2411  TIP3      H2             12.1882445206       23.4847504122       35.5096795908  TIP3      2275            0.0000000000
     24176      2412  TIP3      OH2            12.4752462938       24.7826295259       39.1630613757  TIP3      2276            0.0000000000
     24177      2412  TIP3      H1             12.4311366176       24.3434618309       38.2882929512  TIP3      2276            0.0000000000
     24178      2412  TIP3      H2             12.0622039666       25.6443604335       38.9461889563  TIP3      2276            0.0000000000
     24179      2413  TIP3      OH2            23.0989526977       32.4766171695       26.6830764326  TIP3      2277            0.0000000000
     24180      2413  TIP3      H1             22.4527248750       31.7370423660       26.5995604984  TIP3      2277            0.0000000000
     24181      2413  TIP3      H2             23.1525970424       32.5439650444       27.6536925243  TIP3      2277            0.0000000000
     24182      2414  TIP3      OH2            22.8950101542       31.2608483846       22.4209249587  TIP3      2278            0.0000000000
     24183      2414  TIP3      H1             23.3109769231       31.7158824847       21.6593256671  TIP3      2278            0.0000000000
     24184      2414  TIP3      H2             22.1299654413       31.8610761585       22.5659281045  TIP3      2278            0.0000000000
     24185      2415  TIP3      OH2            20.7658438239       29.3252619758       20.9252062302  TIP3      2279            0.0000000000
     24186      2415  TIP3      H1             19.9561200960       29.3931539634       20.3966569945  TIP3      2279            0.0000000000
     24187      2415  TIP3      H2             20.7266988121       28.4182876922       21.2502628220  TIP3      2279            0.0000000000
     24188      2416  TIP3      OH2            21.0989021908       30.6163384350       26.7258542447  TIP3      2280            0.0000000000
     24189      2416  TIP3      H1             20.6646936618       29.7850585046       26.4481916865  TIP3      2280            0.0000000000
     24190      2416  TIP3      H2             20.6917545110       30.7336477829       27.6130074166  TIP3      2280            0.0000000000
     24191      2417  TIP3      OH2            21.1277811639       32.4631128645       37.4478805887  TIP3      2281            0.0000000000
     24192      2417  TIP3      H1             21.6343296811       31.6624997104       37.2280668011  TIP3      2281            0.0000000000
     24193      2417  TIP3      H2             21.3755827840       33.0317572228       36.6796419214  TIP3      2281            0.0000000000
     24194      2418  TIP3      OH2            22.9068119280       29.9826608852       37.7090331688  TIP3      2282            0.0000000000
     24195      2418  TIP3      H1             22.2634969779       29.7471279757       37.0001763377  TIP3      2282            0.0000000000
     24196      2418  TIP3      H2             23.7267511377       29.6665701129       37.2844913158  TIP3      2282            0.0000000000
     24197      2419  TIP3      OH2            19.8081296222       28.4500293657       25.7552884326  TIP3      2283            0.0000000000
     24198      2419  TIP3      H1             20.1884608895       27.5415566331       25.8650631469  TIP3      2283            0.0000000000
     24199      2419  TIP3      H2             20.4113561410       28.7727414188       25.0560672690  TIP3      2283            0.0000000000
     24200      2420  TIP3      OH2            21.2139161893       29.3065728178       30.6048609213  TIP3      2284            0.0000000000
     24201      2420  TIP3      H1             22.1911988794       29.3525644662       30.7638793802  TIP3      2284            0.0000000000
     24202      2420  TIP3      H2             20.8529791954       29.5102283990       31.4923720551  TIP3      2284            0.0000000000
     24203      2421  TIP3      OH2            20.6206562143       29.9083089584       33.1114375233  TIP3      2285            0.0000000000
     24204      2421  TIP3      H1             19.7023363685       30.2494649370       33.1832505955  TIP3      2285            0.0000000000
     24205      2421  TIP3      H2             21.0955578477       30.7730224946       32.9948275743  TIP3      2285            0.0000000000
     24206      2422  TIP3      OH2             5.3699814366       28.3247259746       37.5796091350  TIP3      2286            0.0000000000
     24207      2422  TIP3      H1              6.2702070603       27.9680082715       37.7449095158  TIP3      2286            0.0000000000
     24208      2422  TIP3      H2              4.9765551721       27.6253495695       37.0176665137  TIP3      2286            0.0000000000
     24209      2423  TIP3      OH2            23.1461704616       24.2119140371       38.2884741170  TIP3      2287            0.0000000000
     24210      2423  TIP3      H1             23.6491298478       23.4958264137       37.8445350515  TIP3      2287            0.0000000000
     24211      2423  TIP3      H2             23.2004967877       24.9456260207       37.6403330790  TIP3      2287            0.0000000000
     24212      2424  TIP3      OH2            20.5057228715       25.7951010495       25.8689457368  TIP3      2288            0.0000000000
     24213      2424  TIP3      H1             21.2094192347       25.3493949519       26.3983184633  TIP3      2288            0.0000000000
     24214      2424  TIP3      H2             20.3333809353       25.1765359980       25.1231239446  TIP3      2288            0.0000000000
     24215      2425  TIP3      OH2             6.6721505704       26.2471852795       30.6007004140  TIP3      2289            0.0000000000
     24216      2425  TIP3      H1              7.1090913097       25.4182393827       30.3126410871  TIP3      2289            0.0000000000
     24217      2425  TIP3      H2              7.1018334980       26.9310327857       30.0623670726  TIP3      2289            0.0000000000
     24218      2426  TIP3      OH2             4.8307614295       29.9847455623       30.9468174081  TIP3      2290            0.0000000000
     24219      2426  TIP3      H1              4.8929075471       29.0200544179       30.8589821471  TIP3      2290            0.0000000000
     24220      2426  TIP3      H2              5.5736069072       30.2660630787       30.3661538262  TIP3      2290            0.0000000000
     24221      2427  TIP3      OH2            22.8346767271       26.3371379832       36.7936561585  TIP3      2291            0.0000000000
     24222      2427  TIP3      H1             22.1433009388       26.7176163808       37.3745423450  TIP3      2291            0.0000000000
     24223      2427  TIP3      H2             22.2410138226       25.9508061649       36.1182486660  TIP3      2291            0.0000000000
     24224      2428  TIP3      OH2             5.2171196717       26.0046118866       24.9658081637  TIP3      2292            0.0000000000
     24225      2428  TIP3      H1              4.7366526805       25.2150317690       25.2586593388  TIP3      2292            0.0000000000
     24226      2428  TIP3      H2              5.0402513236       26.0185525183       24.0071058314  TIP3      2292            0.0000000000
     24227      2429  TIP3      OH2             5.0511330620       24.3628593425       32.9184901056  TIP3      2293            0.0000000000
     24228      2429  TIP3      H1              4.6464094380       23.4911937308       33.0471742520  TIP3      2293            0.0000000000
     24229      2429  TIP3      H2              4.8325679170       24.5413437791       31.9845850129  TIP3      2293            0.0000000000
     24230      2430  TIP3      OH2            21.4857194183       23.5087678918       35.0008506961  TIP3      2294            0.0000000000
     24231      2430  TIP3      H1             20.9584920626       24.0973371451       34.4292092475  TIP3      2294            0.0000000000
     24232      2430  TIP3      H2             21.7216846497       22.7672274681       34.4021573107  TIP3      2294            0.0000000000
     24233      2431  TIP3      OH2            14.6647685684       25.1039147100       29.1409952896  TIP3      2295            0.0000000000
     24234      2431  TIP3      H1             14.0164218617       24.3672982795       29.1483317663  TIP3      2295            0.0000000000
     24235      2431  TIP3      H2             15.4633319045       24.7342200507       28.7122898792  TIP3      2295            0.0000000000
     24236      2432  TIP3      OH2            20.4658314534       23.5655680509       29.1768272875  TIP3      2296            0.0000000000
     24237      2432  TIP3      H1             21.2798042136       23.9863297770       28.8054819931  TIP3      2296            0.0000000000
     24238      2432  TIP3      H2             19.7911437591       24.1963666727       28.8795118438  TIP3      2296            0.0000000000
     24239      2433  TIP3      OH2            22.3075934975       24.8076016190       27.6172678493  TIP3      2297            0.0000000000
     24240      2433  TIP3      H1             22.8813662558       24.2509802662       27.0357062925  TIP3      2297            0.0000000000
     24241      2433  TIP3      H2             22.8955884018       25.5844680148       27.7695699026  TIP3      2297            0.0000000000
     24242      2434  TIP3      OH2             8.0272854511       23.9185803147       26.7471213815  TIP3      2298            0.0000000000
     24243      2434  TIP3      H1              7.1562928494       23.8642130781       26.3223926198  TIP3      2298            0.0000000000
     24244      2434  TIP3      H2              8.3746902791       23.0006024401       26.6283633119  TIP3      2298            0.0000000000
     24245      2435  TIP3      OH2            11.7734942446       23.5219482586       26.5518742817  TIP3      2299            0.0000000000
     24246      2435  TIP3      H1             12.2446848028       24.1514303757       25.9966200707  TIP3      2299            0.0000000000
     24247      2435  TIP3      H2             12.2065524113       23.6262587470       27.4124705872  TIP3      2299            0.0000000000
     24248      2436  TIP3      OH2            17.1429831346       24.3337557500       28.1034443122  TIP3      2300            0.0000000000
     24249      2436  TIP3      H1             17.2171337166       24.1856835134       27.1527604749  TIP3      2300            0.0000000000
     24250      2436  TIP3      H2             17.0952095891       23.3985489758       28.4326610990  TIP3      2300            0.0000000000
     24251      2437  TIP3      OH2            19.9495268346       23.8919366510       23.9855754932  TIP3      2301            0.0000000000
     24252      2437  TIP3      H1             19.7328163140       24.3512722034       23.1565630422  TIP3      2301            0.0000000000
     24253      2437  TIP3      H2             19.1238631559       23.3827582439       24.1688506711  TIP3      2301            0.0000000000
     24254      2438  TIP3      OH2            13.2595573738       25.6906176045       23.4418423367  TIP3      2302            0.0000000000
     24255      2438  TIP3      H1             13.7768426320       25.3329995073       24.1944739065  TIP3      2302            0.0000000000
     24256      2438  TIP3      H2             13.2514254630       26.6315658101       23.7018936387  TIP3      2302            0.0000000000
     24257      2439  TIP3      OH2             7.3192708329       24.7012607408       36.3622845147  TIP3      2303            0.0000000000
     24258      2439  TIP3      H1              6.7873029171       23.8781360753       36.3921227097  TIP3      2303            0.0000000000
     24259      2439  TIP3      H2              8.0653184186       24.4617071089       36.9602610323  TIP3      2303            0.0000000000
     24260      2440  TIP3      OH2             9.3127645056       23.9530389234       38.0850250541  TIP3      2304            0.0000000000
     24261      2440  TIP3      H1             10.1545058971       23.6461361073       37.7002210486  TIP3      2304            0.0000000000
     24262      2440  TIP3      H2              9.0636946495       23.1552400567       38.5833473022  TIP3      2304            0.0000000000
     24263      2441  TIP3      OH2            17.9353363371       23.2270025676       38.3944653432  TIP3      2305            0.0000000000
     24264      2441  TIP3      H1             18.0003481220       22.6468260737       39.1762079846  TIP3      2305            0.0000000000
     24265      2441  TIP3      H2             18.8593481975       23.1410889426       38.0407392420  TIP3      2305            0.0000000000
     24266      2442  TIP3      OH2            26.4339804540       32.0991492786       31.7221614075  TIP3      2306            0.0000000000
     24267      2442  TIP3      H1             26.5379161085       31.2672334974       32.2095307448  TIP3      2306            0.0000000000
     24268      2442  TIP3      H2             26.7440146858       32.7409958325       32.3879219696  TIP3      2306            0.0000000000
     24269      2443  TIP3      OH2            24.5880636518       30.1902336101       25.7236168373  TIP3      2307            0.0000000000
     24270      2443  TIP3      H1             24.2430115787       31.0713391697       25.9479079466  TIP3      2307            0.0000000000
     24271      2443  TIP3      H2             23.8912646883       29.8931239018       25.1028686087  TIP3      2307            0.0000000000
     24272      2444  TIP3      OH2            25.3283946230       32.2087329498       28.4968681476  TIP3      2308            0.0000000000
     24273      2444  TIP3      H1             25.6077825824       31.2713430856       28.5501073910  TIP3      2308            0.0000000000
     24274      2444  TIP3      H2             25.4738021341       32.4440660061       27.5754269430  TIP3      2308            0.0000000000
     24275      2445  TIP3      OH2            28.9610262215       26.9656801219       28.0871327093  TIP3      2309            0.0000000000
     24276      2445  TIP3      H1             29.1867712350       27.8004341151       27.6243843303  TIP3      2309            0.0000000000
     24277      2445  TIP3      H2             28.6108764782       26.4593830844       27.3212067709  TIP3      2309            0.0000000000
     24278      2446  TIP3      OH2            25.9615334137       29.5930763272       28.8795023157  TIP3      2310            0.0000000000
     24279      2446  TIP3      H1             26.5643694055       29.0806063463       29.4536539618  TIP3      2310            0.0000000000
     24280      2446  TIP3      H2             26.1415370149       29.1815011806       28.0134364666  TIP3      2310            0.0000000000
     24281      2447  TIP3      OH2            30.7500913359       30.3195154964       29.0688425888  TIP3      2311            0.0000000000
     24282      2447  TIP3      H1             31.6684179153       30.0954177079       28.8259071980  TIP3      2311            0.0000000000
     24283      2447  TIP3      H2             30.3600949208       30.4500459128       28.1784912970  TIP3      2311            0.0000000000
     24284      2448  TIP3      OH2            27.8790639578       26.3007507749       32.4383870374  TIP3      2312            0.0000000000
     24285      2448  TIP3      H1             27.8490700756       27.0502739272       31.8117333609  TIP3      2312            0.0000000000
     24286      2448  TIP3      H2             26.9907767189       26.3883278140       32.8507118008  TIP3      2312            0.0000000000
     24287      2449  TIP3      OH2            27.8225915006       28.1626619830       30.3509640152  TIP3      2313            0.0000000000
     24288      2449  TIP3      H1             28.5466548156       28.7795759697       30.5723058657  TIP3      2313            0.0000000000
     24289      2449  TIP3      H2             28.2168053852       27.7148566655       29.5606849246  TIP3      2313            0.0000000000
     24290      2450  TIP3      OH2            31.3391004102       23.6193330803       30.0197025386  TIP3      2314            0.0000000000
     24291      2450  TIP3      H1             31.0225394469       22.8211087465       30.4509452354  TIP3      2314            0.0000000000
     24292      2450  TIP3      H2             30.5523895031       24.2015684399       30.1165219448  TIP3      2314            0.0000000000
     24293      2451  TIP3      OH2            29.6716234884       31.7924409418       31.0059669726  TIP3      2315            0.0000000000
     24294      2451  TIP3      H1             30.0388475928       31.2737359240       30.2501030936  TIP3      2315            0.0000000000
     24295      2451  TIP3      H2             29.6897086432       32.7014876656       30.6458667834  TIP3      2315            0.0000000000
     24296      2452  TIP3      OH2            27.5938974698       32.6728709685       34.3010828088  TIP3      2316            0.0000000000
     24297      2452  TIP3      H1             28.3564100277       33.1208514561       34.7115639725  TIP3      2316            0.0000000000
     24298      2452  TIP3      H2             27.0989351805       32.4348495850       35.0952272878  TIP3      2316            0.0000000000
     24299      2453  TIP3      OH2            28.4297150298       32.3497701053       24.1595450592  TIP3      2317            0.0000000000
     24300      2453  TIP3      H1             27.6956053632       32.9610205979       23.9188748671  TIP3      2317            0.0000000000
     24301      2453  TIP3      H2             27.9307443598       31.5245296908       24.1585283317  TIP3      2317            0.0000000000
     24302      2454  TIP3      OH2            29.0709472193       24.7888901077       30.6798063315  TIP3      2318            0.0000000000
     24303      2454  TIP3      H1             28.2021493810       24.7815666465       30.2227556994  TIP3      2318            0.0000000000
     24304      2454  TIP3      H2             28.8291006728       25.3617772812       31.4355080265  TIP3      2318            0.0000000000
     24305      2455  TIP3      OH2            29.1028973320       29.7765621187       32.4668274582  TIP3      2319            0.0000000000
     24306      2455  TIP3      H1             28.1360666653       29.7381798298       32.6427054375  TIP3      2319            0.0000000000
     24307      2455  TIP3      H2             29.1707836648       30.5287856824       31.8261189697  TIP3      2319            0.0000000000
     24308      2456  TIP3      OH2            29.2928189086       29.4188116323       26.8674903055  TIP3      2320            0.0000000000
     24309      2456  TIP3      H1             28.3251675661       29.3012698560       26.7233789732  TIP3      2320            0.0000000000
     24310      2456  TIP3      H2             29.6454705454       29.2173968438       25.9937442135  TIP3      2320            0.0000000000
     24311      2457  TIP3      OH2            26.5944204264       29.4548994072       33.3059874529  TIP3      2321            0.0000000000
     24312      2457  TIP3      H1             26.7651848617       29.5151585432       34.2566330339  TIP3      2321            0.0000000000
     24313      2457  TIP3      H2             26.2211162597       28.5546066278       33.2515887854  TIP3      2321            0.0000000000
     24314      2458  TIP3      OH2            23.9503504999       26.9691670651       28.0504282362  TIP3      2322            0.0000000000
     24315      2458  TIP3      H1             24.5891396708       26.8337354465       28.7769365760  TIP3      2322            0.0000000000
     24316      2458  TIP3      H2             24.0346631889       27.9128063274       27.8460129836  TIP3      2322            0.0000000000
     24317      2459  TIP3      OH2            25.0115163607       27.7865183085       23.1658830791  TIP3      2323            0.0000000000
     24318      2459  TIP3      H1             25.1165595887       27.0895082811       22.4859423446  TIP3      2323            0.0000000000
     24319      2459  TIP3      H2             25.4264623784       28.5320849496       22.7062844103  TIP3      2323            0.0000000000
     24320      2460  TIP3      OH2            31.7208125193       26.9387997928       27.8736347510  TIP3      2324            0.0000000000
     24321      2460  TIP3      H1             30.8420608953       27.1325620487       28.2483738080  TIP3      2324            0.0000000000
     24322      2460  TIP3      H2             32.2726757494       27.6285110116       28.3022056407  TIP3      2324            0.0000000000
     24323      2461  TIP3      OH2            26.8240941530       28.4624186200       26.5014256764  TIP3      2325            0.0000000000
     24324      2461  TIP3      H1             26.0945725599       28.8028010068       25.9430185884  TIP3      2325            0.0000000000
     24325      2461  TIP3      H2             26.9437944562       27.5459920218       26.1623947413  TIP3      2325            0.0000000000
     24326      2462  TIP3      OH2            30.6556496132       28.3732927284       23.4065412236  TIP3      2326            0.0000000000
     24327      2462  TIP3      H1             31.4947856097       28.3243990380       23.9173586807  TIP3      2326            0.0000000000
     24328      2462  TIP3      H2             30.3760526018       29.2573746748       23.6410177407  TIP3      2326            0.0000000000
     24329      2463  TIP3      OH2           -33.0378596761       29.1112223541       28.6032772728  TIP3      2327            0.0000000000
     24330      2463  TIP3      H1            -32.1213087905       29.1414178229       28.2793311258  TIP3      2327            0.0000000000
     24331      2463  TIP3      H2            -32.9353052409       29.4608160926       29.5105826141  TIP3      2327            0.0000000000
     24332      2464  TIP3      OH2            27.8792458046       26.0018969259       25.7360730336  TIP3      2328            0.0000000000
     24333      2464  TIP3      H1             27.4717184015       25.1864690462       26.1138602026  TIP3      2328            0.0000000000
     24334      2464  TIP3      H2             28.2854006752       25.6881845820       24.8912121157  TIP3      2328            0.0000000000
     24335      2465  TIP3      OH2            31.3088636328       28.4662058581       31.9998935603  TIP3      2329            0.0000000000
     24336      2465  TIP3      H1             30.5358369613       29.0610220915       32.0654979747  TIP3      2329            0.0000000000
     24337      2465  TIP3      H2             31.9850788692       29.0249639174       31.5756467173  TIP3      2329            0.0000000000
     24338      2466  TIP3      OH2            24.3390631905       32.1282537534       35.2559659277  TIP3      2330            0.0000000000
     24339      2466  TIP3      H1             24.7370062636       31.4631258357       35.8581619944  TIP3      2330            0.0000000000
     24340      2466  TIP3      H2             24.8085096328       31.9436468241       34.4272800310  TIP3      2330            0.0000000000
     24341      2467  TIP3      OH2            31.7057803219       30.7912528526       36.6920940889  TIP3      2331            0.0000000000
     24342      2467  TIP3      H1             30.8762795688       30.6937358194       36.1751988459  TIP3      2331            0.0000000000
     24343      2467  TIP3      H2             32.3659881336       30.6396254679       36.0060630960  TIP3      2331            0.0000000000
     24344      2468  TIP3      OH2            26.4578419567       30.9871286053       21.8005953776  TIP3      2332            0.0000000000
     24345      2468  TIP3      H1             25.7403286081       31.6262375866       21.9283108961  TIP3      2332            0.0000000000
     24346      2468  TIP3      H2             26.3481076563       30.8165243340       20.8478301664  TIP3      2332            0.0000000000
     24347      2469  TIP3      OH2            25.9614252933       26.9000475427       34.2410566464  TIP3      2333            0.0000000000
     24348      2469  TIP3      H1             25.4272706349       27.4382472675       34.8585624076  TIP3      2333            0.0000000000
     24349      2469  TIP3      H2             26.2817791586       26.2454206789       34.8852764549  TIP3      2333            0.0000000000
     24350      2470  TIP3      OH2            32.6755038230       28.5665862233       25.1491780326  TIP3      2334            0.0000000000
     24351      2470  TIP3      H1             33.1602527874       27.7924486482       24.7956735570  TIP3      2334            0.0000000000
     24352      2470  TIP3      H2             32.6123292273       28.2842946203       26.0695194581  TIP3      2334            0.0000000000
     24353      2471  TIP3      OH2            29.2848942849       25.9118965146       23.3024106617  TIP3      2335            0.0000000000
     24354      2471  TIP3      H1             29.4127470724       26.8768913049       23.3496933338  TIP3      2335            0.0000000000
     24355      2471  TIP3      H2             30.1162139315       25.6727356786       22.8712288801  TIP3      2335            0.0000000000
     24356      2472  TIP3      OH2            26.5812537731       24.5053306997       29.7859580851  TIP3      2336            0.0000000000
     24357      2472  TIP3      H1             26.6094555820       24.2375273787       28.8386549202  TIP3      2336            0.0000000000
     24358      2472  TIP3      H2             26.4995672919       23.5996678402       30.1931730880  TIP3      2336            0.0000000000
     24359      2473  TIP3      OH2            25.9282295888       31.1108748438       37.3775270768  TIP3      2337            0.0000000000
     24360      2473  TIP3      H1             26.1843759877       30.3392792139       37.9279687271  TIP3      2337            0.0000000000
     24361      2473  TIP3      H2             25.6414240661       31.7134245112       38.0919440036  TIP3      2337            0.0000000000
     24362      2474  TIP3      OH2            29.5295274910       30.6451017450       35.0469247449  TIP3      2338            0.0000000000
     24363      2474  TIP3      H1             28.9569861393       31.1457734017       34.4348098677  TIP3      2338            0.0000000000
     24364      2474  TIP3      H2             30.2015727683       30.3983652880       34.3918613207  TIP3      2338            0.0000000000
     24365      2475  TIP3      OH2            30.5728166368       28.0459377070       35.6834429551  TIP3      2339            0.0000000000
     24366      2475  TIP3      H1             30.5459208136       27.2772145687       35.0736653874  TIP3      2339            0.0000000000
     24367      2475  TIP3      H2             30.0831193984       28.7145183801       35.1749816714  TIP3      2339            0.0000000000
     24368      2476  TIP3      OH2            30.3780158641       26.2306301831       33.5536322383  TIP3      2340            0.0000000000
     24369      2476  TIP3      H1             30.7018374578       26.9154779064       32.9223382238  TIP3      2340            0.0000000000
     24370      2476  TIP3      H2             29.4362939116       26.1283807010       33.2907777618  TIP3      2340            0.0000000000
     24371      2477  TIP3      OH2            32.1505623499       31.7818203645       33.5054674223  TIP3      2341            0.0000000000
     24372      2477  TIP3      H1             32.5082845781       31.1502915749       32.8711556715  TIP3      2341            0.0000000000
     24373      2477  TIP3      H2             32.5613274256       32.6188099258       33.1796375460  TIP3      2341            0.0000000000
     24374      2478  TIP3      OH2            28.8596870216       29.3139995096       38.0661234207  TIP3      2342            0.0000000000
     24375      2478  TIP3      H1             28.0678835990       28.7422282145       37.9502326669  TIP3      2342            0.0000000000
     24376      2478  TIP3      H2             29.3895539080       29.0328729025       37.2944546020  TIP3      2342            0.0000000000
     24377      2479  TIP3      OH2            31.0533262436       23.5829278288       33.6511471943  TIP3      2343            0.0000000000
     24378      2479  TIP3      H1             30.8705225613       24.5464286325       33.6145840358  TIP3      2343            0.0000000000
     24379      2479  TIP3      H2             30.2070083995       23.2283414213       33.3152511712  TIP3      2343            0.0000000000
     24380      2480  TIP3      OH2            32.5777242000       27.6369395845       37.8049589149  TIP3      2344            0.0000000000
     24381      2480  TIP3      H1             32.0056954083       27.6527440032       38.6061400830  TIP3      2344            0.0000000000
     24382      2480  TIP3      H2             31.9116364895       27.7629014644       37.0988805525  TIP3      2344            0.0000000000
     24383      2481  TIP3      OH2            26.7043202323       27.4550443944       37.7280946499  TIP3      2345            0.0000000000
     24384      2481  TIP3      H1             26.5321001768       26.6044403154       37.2719276532  TIP3      2345            0.0000000000
     24385      2481  TIP3      H2             26.6920903099       27.1493999523       38.6596518559  TIP3      2345            0.0000000000
     24386      2482  TIP3      OH2            31.6063318670       24.1942476101       36.5688769197  TIP3      2346            0.0000000000
     24387      2482  TIP3      H1             32.4747800798       23.7741832167       36.5966958750  TIP3      2346            0.0000000000
     24388      2482  TIP3      H2             31.3297435296       24.0073392140       35.6505632125  TIP3      2346            0.0000000000
     24389      2483  TIP3      OH2            31.3958820515       24.9523584392       39.3260143844  TIP3      2347            0.0000000000
     24390      2483  TIP3      H1             31.4949190531       24.5484101591       38.4416972602  TIP3      2347            0.0000000000
     24391      2483  TIP3      H2             31.2759298821       25.8783869156       39.0486740861  TIP3      2347            0.0000000000
     24392      2484  TIP3      OH2            24.6080179953       28.3300622217       36.2564140308  TIP3      2348            0.0000000000
     24393      2484  TIP3      H1             25.2984155803       28.1357380835       36.9341101777  TIP3      2348            0.0000000000
     24394      2484  TIP3      H2             24.0058714583       27.5604396142       36.3976360027  TIP3      2348            0.0000000000
     24395      2485  TIP3      OH2            25.3983594896       26.7001914836       30.5359867830  TIP3      2349            0.0000000000
     24396      2485  TIP3      H1             25.7330678972       25.7855176136       30.3307904942  TIP3      2349            0.0000000000
     24397      2485  TIP3      H2             26.2058396115       27.2432058786       30.4801402822  TIP3      2349            0.0000000000
     24398      2486  TIP3      OH2            23.8665608390       29.8153614818       30.5675362933  TIP3      2350            0.0000000000
     24399      2486  TIP3      H1             24.5613687803       29.5872324122       29.9186590467  TIP3      2350            0.0000000000
     24400      2486  TIP3      H2             24.2992184206       30.5717735118       30.9858704602  TIP3      2350            0.0000000000
     24401      2487  TIP3      OH2            23.7631990208       25.7731775625       24.6766914234  TIP3      2351            0.0000000000
     24402      2487  TIP3      H1             22.8714613237       25.9685483968       24.3628835158  TIP3      2351            0.0000000000
     24403      2487  TIP3      H2             24.2411688513       26.5136610798       24.2549806610  TIP3      2351            0.0000000000
     24404      2488  TIP3      OH2            24.0722017757       24.4938444418       33.3437467693  TIP3      2352            0.0000000000
     24405      2488  TIP3      H1             23.3181455476       24.0504368227       33.7662765523  TIP3      2352            0.0000000000
     24406      2488  TIP3      H2             23.7880036918       25.4148789074       33.2579534865  TIP3      2352            0.0000000000
     24407      2489  TIP3      OH2            26.5749722183       23.9121904951       27.0496237312  TIP3      2353            0.0000000000
     24408      2489  TIP3      H1             25.7313805468       23.8918856234       26.5570532204  TIP3      2353            0.0000000000
     24409      2489  TIP3      H2             26.8764353462       22.9864371576       26.8919784743  TIP3      2353            0.0000000000
     24410      2490  TIP3      OH2            25.4346933810       23.8832978341       23.1243408462  TIP3      2354            0.0000000000
     24411      2490  TIP3      H1             25.6626578633       24.5697341085       22.4495259709  TIP3      2354            0.0000000000
     24412      2490  TIP3      H2             24.7856316717       24.3627444230       23.6850575084  TIP3      2354            0.0000000000
     24413      2491  TIP3      OH2            31.1078574022       23.7065360134       27.1501133462  TIP3      2355            0.0000000000
     24414      2491  TIP3      H1             31.1100862280       24.6080499809       26.7985860213  TIP3      2355            0.0000000000
     24415      2491  TIP3      H2             31.3703417270       23.8630625853       28.0814011135  TIP3      2355            0.0000000000
     24416      2492  TIP3      OH2            26.3307302992       25.5369167789       21.2793046043  TIP3      2356            0.0000000000
     24417      2492  TIP3      H1             27.0826950440       25.0227599764       20.9374261468  TIP3      2356            0.0000000000
     24418      2492  TIP3      H2             26.2123764504       26.2140505344       20.5812969591  TIP3      2356            0.0000000000
     24419      2493  TIP3      OH2            26.0872380744       24.8987111034       36.6032411350  TIP3      2357            0.0000000000
     24420      2493  TIP3      H1             25.4162116147       24.1919567038       36.6946866465  TIP3      2357            0.0000000000
     24421      2493  TIP3      H2             26.8084578609       24.5402472584       37.1696892239  TIP3      2357            0.0000000000
     24422      2494  TIP3      OH2            28.0494435378       23.8662833829       38.3142054985  TIP3      2358            0.0000000000
     24423      2494  TIP3      H1             28.9207669049       23.6520065097       37.9316795390  TIP3      2358            0.0000000000
     24424      2494  TIP3      H2             27.8361147355       23.0073972269       38.7398947379  TIP3      2358            0.0000000000
     24425      2495  TIP3      OH2           -22.1341364649      -25.3764853821       39.3610424210  TIP3      2359            0.0000000000
     24426      2495  TIP3      H1            -21.8237915579      -25.1649013437       40.2603636145  TIP3      2359            0.0000000000
     24427      2495  TIP3      H2            -21.4254332529      -26.0020529846       39.0962065265  TIP3      2359            0.0000000000
     24428      2496  TIP3      OH2           -20.1255844891      -24.8315903286       41.3987318246  TIP3      2360            0.0000000000
     24429      2496  TIP3      H1            -19.8409822148      -24.6651550137       42.3211059001  TIP3      2360            0.0000000000
     24430      2496  TIP3      H2            -19.3359285258      -24.5217244688       40.9006800914  TIP3      2360            0.0000000000
     24431      2497  TIP3      OH2           -16.3369314951      -33.0309009203       41.6475265396  TIP3      2361            0.0000000000
     24432      2497  TIP3      H1            -17.0014338546      -32.9083562919       42.3505123421  TIP3      2361            0.0000000000
     24433      2497  TIP3      H2            -15.9496054645      -32.1288809193       41.6201728057  TIP3      2361            0.0000000000
     24434      2498  TIP3      OH2           -15.0994720463      -18.3991020312       39.6101469002  TIP3      2362            0.0000000000
     24435      2498  TIP3      H1            -14.9178934590      -17.4655198851       39.8278367216  TIP3      2362            0.0000000000
     24436      2498  TIP3      H2            -14.6028451752      -18.8223952113       40.3352712527  TIP3      2362            0.0000000000
     24437      2499  TIP3      OH2           -19.3320934532      -16.1011649860       40.3396475092  TIP3      2363            0.0000000000
     24438      2499  TIP3      H1            -19.0515972602      -16.8496469797       39.7643714765  TIP3      2363            0.0000000000
     24439      2499  TIP3      H2            -18.8271609666      -16.2793779133       41.1503424926  TIP3      2363            0.0000000000
     24440      2500  TIP3      OH2           -17.9416217252      -23.6300976132       40.1669007693  TIP3      2364            0.0000000000
     24441      2500  TIP3      H1            -18.3571897179      -23.6421503087       39.2818439611  TIP3      2364            0.0000000000
     24442      2500  TIP3      H2            -17.0027719808      -23.6401994060       39.8741880086  TIP3      2364            0.0000000000
     24443      2501  TIP3      OH2           -22.7636778944      -30.1218498383       40.2944522762  TIP3      2365            0.0000000000
     24444      2501  TIP3      H1            -23.6949708902      -29.8513192598       40.1432116207  TIP3      2365            0.0000000000
     24445      2501  TIP3      H2            -22.8083518401      -31.0755425610       40.1058175063  TIP3      2365            0.0000000000
     24446      2502  TIP3      OH2           -25.4817239290      -29.3206606944       39.5550625063  TIP3      2366            0.0000000000
     24447      2502  TIP3      H1            -25.8308557396      -29.0977426798       40.4381829771  TIP3      2366            0.0000000000
     24448      2502  TIP3      H2            -26.3084914596      -29.1298167255       39.0516454503  TIP3      2366            0.0000000000
     24449      2503  TIP3      OH2           -32.0973591690      -28.7005802955       41.8363704274  TIP3      2367            0.0000000000
     24450      2503  TIP3      H1            -31.6879620733      -27.9838092799       41.3057529780  TIP3      2367            0.0000000000
     24451      2503  TIP3      H2            -33.0323244321      -28.4693156721       41.8779689273  TIP3      2367            0.0000000000
     24452      2504  TIP3      OH2           -27.2575498401      -26.1172402657       40.8310159556  TIP3      2368            0.0000000000
     24453      2504  TIP3      H1            -27.9040063895      -26.8397128420       40.7147076537  TIP3      2368            0.0000000000
     24454      2504  TIP3      H2            -26.8843844688      -26.0415324647       39.9234004757  TIP3      2368            0.0000000000
     24455      2505  TIP3      OH2           -19.7980572913      -29.4919748372       40.3989802101  TIP3      2369            0.0000000000
     24456      2505  TIP3      H1            -20.7678544400      -29.5402892785       40.5377179295  TIP3      2369            0.0000000000
     24457      2505  TIP3      H2            -19.5430094273      -28.9466818731       41.1548801611  TIP3      2369            0.0000000000
     24458      2506  TIP3      OH2           -23.1607135907      -20.8337628393       40.3178782347  TIP3      2370            0.0000000000
     24459      2506  TIP3      H1            -23.1983113399      -19.9337384510       40.7092019542  TIP3      2370            0.0000000000
     24460      2506  TIP3      H2            -23.0945439238      -21.3740880890       41.1144753425  TIP3      2370            0.0000000000
     24461      2507  TIP3      OH2           -30.7420875822      -23.6635846987       39.7168695177  TIP3      2371            0.0000000000
     24462      2507  TIP3      H1            -30.2845206853      -23.5655346601       40.5873684668  TIP3      2371            0.0000000000
     24463      2507  TIP3      H2            -31.3243609870      -22.8867911319       39.8079761721  TIP3      2371            0.0000000000
     24464      2508  TIP3      OH2           -18.6680625784      -20.1824296566       40.2377353606  TIP3      2372            0.0000000000
     24465      2508  TIP3      H1            -18.9448911392      -20.0493734959       41.1580302827  TIP3      2372            0.0000000000
     24466      2508  TIP3      H2            -19.2676246192      -20.8853951273       39.9319005485  TIP3      2372            0.0000000000
     24467      2509  TIP3      OH2           -14.7358284723      -15.9296404755       40.7086688688  TIP3      2373            0.0000000000
     24468      2509  TIP3      H1            -13.9703552584      -15.3401868041       40.7374181349  TIP3      2373            0.0000000000
     24469      2509  TIP3      H2            -15.4659501224      -15.3609641373       41.0332152083  TIP3      2373            0.0000000000
     24470      2510  TIP3      OH2           -24.9990021327      -18.8011551609       38.6508690344  TIP3      2374            0.0000000000
     24471      2510  TIP3      H1            -25.2388291215      -19.5858999703       38.1350381094  TIP3      2374            0.0000000000
     24472      2510  TIP3      H2            -25.0155818640      -19.1815163368       39.5563607749  TIP3      2374            0.0000000000
     24473      2511  TIP3      OH2           -26.0439133029      -19.8759100048       41.2984728722  TIP3      2375            0.0000000000
     24474      2511  TIP3      H1            -26.4630775246      -20.5820491417       41.8398817188  TIP3      2375            0.0000000000
     24475      2511  TIP3      H2            -26.4521746467      -19.0566686398       41.6496784259  TIP3      2375            0.0000000000
     24476      2512  TIP3      OH2           -29.9478884694      -22.7031409997       42.1005750506  TIP3      2376            0.0000000000
     24477      2512  TIP3      H1            -30.4882453042      -22.1284029519       42.6847613120  TIP3      2376            0.0000000000
     24478      2512  TIP3      H2            -29.2161548279      -22.0893960038       41.8911332288  TIP3      2376            0.0000000000
     24479      2513  TIP3      OH2           -23.6546423943      -18.1992326626       41.1722938009  TIP3      2377            0.0000000000
     24480      2513  TIP3      H1            -24.5300677595      -17.8367079086       41.3957820332  TIP3      2377            0.0000000000
     24481      2513  TIP3      H2            -23.0951793959      -17.4944366119       41.5380580039  TIP3      2377            0.0000000000
     24482      2514  TIP3      OH2           -26.3178864116      -17.4569637348       42.3153665995  TIP3      2378            0.0000000000
     24483      2514  TIP3      H1            -26.0915772101      -16.7029383923       41.7204719793  TIP3      2378            0.0000000000
     24484      2514  TIP3      H2            -26.7647797115      -16.9515756368       43.0128932346  TIP3      2378            0.0000000000
     24485      2515  TIP3      OH2           -27.2572022867      -31.0689029210       41.5545343787  TIP3      2379            0.0000000000
     24486      2515  TIP3      H1            -27.5458628192      -30.3985250749       40.8884758678  TIP3      2379            0.0000000000
     24487      2515  TIP3      H2            -26.7332960466      -30.5136285817       42.1664181575  TIP3      2379            0.0000000000
     24488      2516  TIP3      OH2           -29.1338107388      -20.3858165852       40.6597747369  TIP3      2380            0.0000000000
     24489      2516  TIP3      H1            -28.7005891322      -19.7162733998       41.2056579312  TIP3      2380            0.0000000000
     24490      2516  TIP3      H2            -28.3736186951      -20.7461027150       40.1739178814  TIP3      2380            0.0000000000
     24491      2517  TIP3      OH2           -31.4223716779      -26.3602639947       40.4086082347  TIP3      2381            0.0000000000
     24492      2517  TIP3      H1            -31.1290406694      -25.4691016820       40.1157213900  TIP3      2381            0.0000000000
     24493      2517  TIP3      H2            -32.0221679133      -26.6086599101       39.6925059836  TIP3      2381            0.0000000000
     24494      2518  TIP3      OH2           -22.7210977347      -17.0421849349       38.7361131345  TIP3      2382            0.0000000000
     24495      2518  TIP3      H1            -23.2758120093      -17.8336058095       38.9201679644  TIP3      2382            0.0000000000
     24496      2518  TIP3      H2            -21.8884556628      -17.4636968218       38.4339522243  TIP3      2382            0.0000000000
     24497      2519  TIP3      OH2           -18.4106657838      -17.8506099580       38.6188907210  TIP3      2383            0.0000000000
     24498      2519  TIP3      H1            -18.3099552116      -18.6321092761       39.2016854587  TIP3      2383            0.0000000000
     24499      2519  TIP3      H2            -17.5371817218      -17.8052289888       38.1607624695  TIP3      2383            0.0000000000
     24500      2520  TIP3      OH2           -27.2833859981      -22.1211248972       38.6673836276  TIP3      2384            0.0000000000
     24501      2520  TIP3      H1            -26.9160385250      -22.3405047155       39.5457991535  TIP3      2384            0.0000000000
     24502      2520  TIP3      H2            -26.4686539471      -22.1506372939       38.1210654898  TIP3      2384            0.0000000000
     24503      2521  TIP3      OH2           -22.1226857683      -20.3938738412       37.9070345376  TIP3      2385            0.0000000000
     24504      2521  TIP3      H1            -22.6046798670      -20.5776067471       38.7430556855  TIP3      2385            0.0000000000
     24505      2521  TIP3      H2            -21.8164837954      -21.3186918334       37.7653374521  TIP3      2385            0.0000000000
     24506      2522  TIP3      OH2           -26.3737297645      -23.5387056934       40.8604050367  TIP3      2386            0.0000000000
     24507      2522  TIP3      H1            -26.8676796989      -24.3372010865       41.1570707205  TIP3      2386            0.0000000000
     24508      2522  TIP3      H2            -25.8238763360      -24.0054093166       40.1916570723  TIP3      2386            0.0000000000
     24509      2523  TIP3      OH2           -25.5816140025      -25.1879193934       38.9295204076  TIP3      2387            0.0000000000
     24510      2523  TIP3      H1            -25.7144418008      -25.0244349760       37.9692734787  TIP3      2387            0.0000000000
     24511      2523  TIP3      H2            -24.6695741882      -25.5115351254       38.9319658478  TIP3      2387            0.0000000000
     24512      2524  TIP3      OH2           -15.4864420471      -23.2175719533       39.0176305419  TIP3      2388            0.0000000000
     24513      2524  TIP3      H1            -15.6677069474      -23.5864029912       38.1318072009  TIP3      2388            0.0000000000
     24514      2524  TIP3      H2            -15.6630362311      -22.2490729447       38.8444206031  TIP3      2388            0.0000000000
     24515      2525  TIP3      OH2           -25.2539841537      -15.3642917962       40.9616537056  TIP3      2389            0.0000000000
     24516      2525  TIP3      H1            -24.2917031775      -15.2330967148       40.7925422595  TIP3      2389            0.0000000000
     24517      2525  TIP3      H2            -25.5558286439      -14.4740343969       40.7042054298  TIP3      2389            0.0000000000
     24518      2526  TIP3      OH2           -31.9000813792      -20.4222150539       40.1111281097  TIP3      2390            0.0000000000
     24519      2526  TIP3      H1            -30.9488409726      -20.1908382896       40.1885313908  TIP3      2390            0.0000000000
     24520      2526  TIP3      H2            -31.9506095077      -20.7578942704       39.2010746764  TIP3      2390            0.0000000000
     24521      2527  TIP3      OH2           -13.9454356370      -24.2101656618       40.9918703478  TIP3      2391            0.0000000000
     24522      2527  TIP3      H1            -14.5357003890      -24.1126691082       40.2084363399  TIP3      2391            0.0000000000
     24523      2527  TIP3      H2            -14.0067082895      -23.3019911217       41.3220995945  TIP3      2391            0.0000000000
     24524      2528  TIP3      OH2           -16.2861315933      -26.7977606627       39.7996880027  TIP3      2392            0.0000000000
     24525      2528  TIP3      H1            -15.8955190187      -26.4373089339       38.9978408006  TIP3      2392            0.0000000000
     24526      2528  TIP3      H2            -16.6997626182      -27.6209482169       39.4753933102  TIP3      2392            0.0000000000
     24527      2529  TIP3      OH2           -16.9969094912      -29.2642621720       38.8381971840  TIP3      2393            0.0000000000
     24528      2529  TIP3      H1            -16.3954108566      -29.7638389730       39.4308657921  TIP3      2393            0.0000000000
     24529      2529  TIP3      H2            -17.8472312053      -29.6452419309       39.1044357732  TIP3      2393            0.0000000000
     24530      2530  TIP3      OH2           -15.2933057095      -30.6198869815       40.5002378868  TIP3      2394            0.0000000000
     24531      2530  TIP3      H1            -14.7296727052      -31.2041418407       39.9376186378  TIP3      2394            0.0000000000
     24532      2530  TIP3      H2            -14.6054596145      -30.0706114741       40.9238569060  TIP3      2394            0.0000000000
     24533      2531  TIP3      OH2           -32.0268215631      -32.4699356200       41.7995246890  TIP3      2395            0.0000000000
     24534      2531  TIP3      H1            -31.3633233852      -32.0819713744       41.1921474672  TIP3      2395            0.0000000000
     24535      2531  TIP3      H2            -32.5995863188      -31.6936919967       41.9169989075  TIP3      2395            0.0000000000
     24536      2532  TIP3      OH2           -30.1461167340      -31.9086971200       39.6319206733  TIP3      2396            0.0000000000
     24537      2532  TIP3      H1            -29.3343157372      -32.4427530896       39.5443006604  TIP3      2396            0.0000000000
     24538      2532  TIP3      H2            -29.7529171725      -31.0071043573       39.6340332102  TIP3      2396            0.0000000000
     24539      2533  TIP3      OH2           -22.6041953660      -15.0338426775       40.5613511606  TIP3      2397            0.0000000000
     24540      2533  TIP3      H1            -21.7923221038      -14.6121179716       40.2575749337  TIP3      2397            0.0000000000
     24541      2533  TIP3      H2            -22.5380120676      -15.8925344651       40.0902650494  TIP3      2397            0.0000000000
     24542      2534  TIP3      OH2           -29.2705611699      -15.8290215276       39.1922660471  TIP3      2398            0.0000000000
     24543      2534  TIP3      H1            -29.5804314050      -15.9646357216       40.0983373783  TIP3      2398            0.0000000000
     24544      2534  TIP3      H2            -28.4349962790      -16.3645712605       39.1744511989  TIP3      2398            0.0000000000
     24545      2535  TIP3      OH2            -3.4090975893      -26.2789448269       40.7851813210  TIP3      2399            0.0000000000
     24546      2535  TIP3      H1             -2.6611465773      -25.6929167894       41.0333129225  TIP3      2399            0.0000000000
     24547      2535  TIP3      H2             -2.9717013329      -26.8084516884       40.0994661306  TIP3      2399            0.0000000000
     24548      2536  TIP3      OH2            -1.2801063922      -24.7970140870       41.5061649455  TIP3      2400            0.0000000000
     24549      2536  TIP3      H1             -0.7637544299      -24.6107388151       42.3279723532  TIP3      2400            0.0000000000
     24550      2536  TIP3      H2             -0.6461708225      -24.4841753943       40.8278346713  TIP3      2400            0.0000000000
     24551      2537  TIP3      OH2             2.0676962100      -32.4080976609       42.0360431191  TIP3      2401            0.0000000000
     24552      2537  TIP3      H1              1.2958681758      -31.8399911647       41.9419045084  TIP3      2401            0.0000000000
     24553      2537  TIP3      H2              2.7754980576      -31.8148195470       41.7107932765  TIP3      2401            0.0000000000
     24554      2538  TIP3      OH2             3.7983558014      -18.5787109157       39.2589879927  TIP3      2402            0.0000000000
     24555      2538  TIP3      H1              3.8572127971      -17.6314075266       39.4908287020  TIP3      2402            0.0000000000
     24556      2538  TIP3      H2              4.3103697083      -18.9309888905       40.0071819077  TIP3      2402            0.0000000000
     24557      2539  TIP3      OH2            -0.4895810484      -15.8601876390       40.3876532966  TIP3      2403            0.0000000000
     24558      2539  TIP3      H1             -0.1828749163      -16.5334364628       39.7329515140  TIP3      2403            0.0000000000
     24559      2539  TIP3      H2             -0.0841960250      -16.2309012545       41.1890645732  TIP3      2403            0.0000000000
     24560      2540  TIP3      OH2             0.2975640635      -22.9879319824       39.9157799557  TIP3      2404            0.0000000000
     24561      2540  TIP3      H1              0.2558473038      -23.0566955859       38.9364476353  TIP3      2404            0.0000000000
     24562      2540  TIP3      H2              1.2230461764      -22.7236354683       40.0035829165  TIP3      2404            0.0000000000
     24563      2541  TIP3      OH2            -4.1097729998      -29.8998027242       39.9605004045  TIP3      2405            0.0000000000
     24564      2541  TIP3      H1             -4.4765941138      -29.3636110808       40.6740283278  TIP3      2405            0.0000000000
     24565      2541  TIP3      H2             -4.9012379281      -30.3280319098       39.5906414975  TIP3      2405            0.0000000000
     24566      2542  TIP3      OH2            -7.7034578073      -29.0643848837       39.3844781839  TIP3      2406            0.0000000000
     24567      2542  TIP3      H1             -7.8423721481      -28.8736792204       40.3340529770  TIP3      2406            0.0000000000
     24568      2542  TIP3      H2             -8.3422531776      -28.4395549833       38.9734871555  TIP3      2406            0.0000000000
     24569      2543  TIP3      OH2           -13.2356775492      -29.0984875621       41.7076555831  TIP3      2407            0.0000000000
     24570      2543  TIP3      H1            -12.5605103397      -28.7669025513       41.0847293094  TIP3      2407            0.0000000000
     24571      2543  TIP3      H2            -13.7080499126      -28.2842865164       41.9230504011  TIP3      2407            0.0000000000
     24572      2544  TIP3      OH2            -9.1187453215      -27.2267432179       41.1132682450  TIP3      2408            0.0000000000
     24573      2544  TIP3      H1            -10.0356315382      -27.3765524174       40.7936539447  TIP3      2408            0.0000000000
     24574      2544  TIP3      H2             -8.9290271156      -26.4005877058       40.6494368836  TIP3      2408            0.0000000000
     24575      2545  TIP3      OH2            -0.9452327261      -29.7256851267       40.5419652135  TIP3      2409            0.0000000000
     24576      2545  TIP3      H1             -1.8761693979      -29.7712376527       40.8171099592  TIP3      2409            0.0000000000
     24577      2545  TIP3      H2             -0.6280153367      -29.0419669497       41.1410333230  TIP3      2409            0.0000000000
     24578      2546  TIP3      OH2            -3.9417650423      -20.4205576161       40.4810916259  TIP3      2410            0.0000000000
     24579      2546  TIP3      H1             -4.0520210044      -19.5443527548       40.9322340441  TIP3      2410            0.0000000000
     24580      2546  TIP3      H2             -4.0673097716      -21.0189111928       41.2296210954  TIP3      2410            0.0000000000
     24581      2547  TIP3      OH2           -11.1780734402      -24.2268940033       40.1713917397  TIP3      2411            0.0000000000
     24582      2547  TIP3      H1            -10.8967707420      -23.4533229687       40.7207444203  TIP3      2411            0.0000000000
     24583      2547  TIP3      H2            -12.0886137139      -24.3208088343       40.5337744076  TIP3      2411            0.0000000000
     24584      2548  TIP3      OH2             0.6431999414      -19.8466479915       40.5618270635  TIP3      2412            0.0000000000
     24585      2548  TIP3      H1              0.9729536659      -19.8589891505       41.4792089351  TIP3      2412            0.0000000000
     24586      2548  TIP3      H2             -0.2944595959      -20.0580925867       40.7192044660  TIP3      2412            0.0000000000
     24587      2549  TIP3      OH2             4.1285596479      -15.9944520042       40.3959743653  TIP3      2413            0.0000000000
     24588      2549  TIP3      H1              4.9518713716      -15.5023764673       40.5350797993  TIP3      2413            0.0000000000
     24589      2549  TIP3      H2              3.5086040915      -15.4208120527       40.9076236940  TIP3      2413            0.0000000000
     24590      2550  TIP3      OH2            -6.2029508624      -18.7300378490       38.9565323410  TIP3      2414            0.0000000000
     24591      2550  TIP3      H1             -6.2361579626      -19.3775371413       38.2458629665  TIP3      2414            0.0000000000
     24592      2550  TIP3      H2             -6.5698556931      -19.2457317188       39.7066889790  TIP3      2414            0.0000000000
     24593      2551  TIP3      OH2            -7.3218737264      -19.7962550746       41.4051807822  TIP3      2415            0.0000000000
     24594      2551  TIP3      H1             -7.8932269766      -20.1923188646       42.0969493847  TIP3      2415            0.0000000000
     24595      2551  TIP3      H2             -7.2111231882      -18.8747582392       41.7335652784  TIP3      2415            0.0000000000
     24596      2552  TIP3      OH2           -10.7967207716      -22.0476676304       41.6535626864  TIP3      2416            0.0000000000
     24597      2552  TIP3      H1            -11.3108839363      -22.4594858083       42.3821951097  TIP3      2416            0.0000000000
     24598      2552  TIP3      H2             -9.9306577292      -21.9509865614       42.0961496433  TIP3      2416            0.0000000000
     24599      2553  TIP3      OH2            -4.6090907631      -18.1005361681       41.5836195578  TIP3      2417            0.0000000000
     24600      2553  TIP3      H1             -5.5435770195      -17.8345589240       41.6659527885  TIP3      2417            0.0000000000
     24601      2553  TIP3      H2             -4.1782826525      -17.2237644727       41.5702164914  TIP3      2417            0.0000000000
     24602      2554  TIP3      OH2            -7.1469408514      -17.2969929534       42.1672675011  TIP3      2418            0.0000000000
     24603      2554  TIP3      H1             -7.1500204641      -16.7607869430       41.3394934679  TIP3      2418            0.0000000000
     24604      2554  TIP3      H2             -7.3663456141      -16.5689173609       42.7744016967  TIP3      2418            0.0000000000
     24605      2555  TIP3      OH2            -9.6263377061      -29.9890041046       41.6919529244  TIP3      2419            0.0000000000
     24606      2555  TIP3      H1             -9.4036277690      -29.0418257865       41.6582534569  TIP3      2419            0.0000000000
     24607      2555  TIP3      H2             -8.7911967164      -30.3344276826       42.0641798966  TIP3      2419            0.0000000000
     24608      2556  TIP3      OH2           -10.1673962391      -19.6405353982       40.0767437108  TIP3      2420            0.0000000000
     24609      2556  TIP3      H1             -9.6535449745      -19.5497068453       40.8955357461  TIP3      2420            0.0000000000
     24610      2556  TIP3      H2             -9.7640645756      -20.4358451360       39.6853989598  TIP3      2420            0.0000000000
     24611      2557  TIP3      OH2           -11.6514850262      -27.0100976952       39.9406455709  TIP3      2421            0.0000000000
     24612      2557  TIP3      H1            -11.5062544584      -26.0711424530       40.1392575602  TIP3      2421            0.0000000000
     24613      2557  TIP3      H2            -12.3921813096      -26.9682520287       39.3203143475  TIP3      2421            0.0000000000
     24614      2558  TIP3      OH2            -3.9493467741      -16.9475345184       38.7661571223  TIP3      2422            0.0000000000
     24615      2558  TIP3      H1             -4.5599035281      -17.6998882946       38.9125864068  TIP3      2422            0.0000000000
     24616      2558  TIP3      H2             -3.1756812825      -17.3887508024       38.3519715857  TIP3      2422            0.0000000000
     24617      2559  TIP3      OH2             0.5488869743      -17.7411034474       38.7640414255  TIP3      2423            0.0000000000
     24618      2559  TIP3      H1              0.7714939378      -18.4723956621       39.3788022217  TIP3      2423            0.0000000000
     24619      2559  TIP3      H2              1.3673685620      -17.6805093261       38.2271302843  TIP3      2423            0.0000000000
     24620      2560  TIP3      OH2            -8.6633738088      -21.7379883307       38.7135358178  TIP3      2424            0.0000000000
     24621      2560  TIP3      H1             -8.6453836648      -22.2792624816       39.5204116772  TIP3      2424            0.0000000000
     24622      2560  TIP3      H2             -7.7343245863      -21.7400398055       38.4154777963  TIP3      2424            0.0000000000
     24623      2561  TIP3      OH2            -2.9094120934      -20.1721747231       38.0495325149  TIP3      2425            0.0000000000
     24624      2561  TIP3      H1             -3.3507970276      -20.1432039403       38.9281694165  TIP3      2425            0.0000000000
     24625      2561  TIP3      H2             -2.8962497998      -21.1411006592       37.9326483928  TIP3      2425            0.0000000000
     24626      2562  TIP3      OH2            -7.2148350982      -23.4127111787       40.5641560408  TIP3      2426            0.0000000000
     24627      2562  TIP3      H1             -6.5701317502      -23.7059508557       41.2225146255  TIP3      2426            0.0000000000
     24628      2562  TIP3      H2             -7.3757545813      -24.2568393807       40.0932154840  TIP3      2426            0.0000000000
     24629      2563  TIP3      OH2            -6.7667079416      -25.7630266544       39.2513356673  TIP3      2427            0.0000000000
     24630      2563  TIP3      H1             -7.4146854776      -25.9995258702       38.5582371314  TIP3      2427            0.0000000000
     24631      2563  TIP3      H2             -6.2678824096      -26.5947925183       39.2765341060  TIP3      2427            0.0000000000
     24632      2564  TIP3      OH2             3.4102129855      -23.1054442567       38.8614038476  TIP3      2428            0.0000000000
     24633      2564  TIP3      H1              3.0968878327      -23.5516175265       38.0373565523  TIP3      2428            0.0000000000
     24634      2564  TIP3      H2              3.0084056705      -22.2038616897       38.7518771844  TIP3      2428            0.0000000000
     24635      2565  TIP3      OH2            -6.3792255119      -14.9851643009       40.9918357680  TIP3      2429            0.0000000000
     24636      2565  TIP3      H1             -5.4132629644      -14.8706894369       40.8758369851  TIP3      2429            0.0000000000
     24637      2565  TIP3      H2             -6.7306069393      -14.2875187059       40.4044406300  TIP3      2429            0.0000000000
     24638      2566  TIP3      OH2           -13.0685451497      -20.1938788506       40.4464026916  TIP3      2430            0.0000000000
     24639      2566  TIP3      H1            -12.0927067856      -20.1298548967       40.4767732576  TIP3      2430            0.0000000000
     24640      2566  TIP3      H2            -13.1771590945      -20.7260420669       39.6359477049  TIP3      2430            0.0000000000
     24641      2567  TIP3      OH2             4.6755977911      -24.1935528537       41.1136959627  TIP3      2431            0.0000000000
     24642      2567  TIP3      H1              4.1314572194      -24.0964543172       40.3008634117  TIP3      2431            0.0000000000
     24643      2567  TIP3      H2              5.0965924353      -23.3160002147       41.1528331396  TIP3      2431            0.0000000000
     24644      2568  TIP3      OH2             2.5334346752      -26.7142723299       39.6425678745  TIP3      2432            0.0000000000
     24645      2568  TIP3      H1              2.9997258150      -26.4217940705       38.8482215903  TIP3      2432            0.0000000000
     24646      2568  TIP3      H2              2.2861570369      -27.6295431021       39.4072104667  TIP3      2432            0.0000000000
     24647      2569  TIP3      OH2             1.7565554328      -29.2554467478       38.8785259210  TIP3      2433            0.0000000000
     24648      2569  TIP3      H1              2.2422589952      -29.7149820761       39.6028395555  TIP3      2433            0.0000000000
     24649      2569  TIP3      H2              1.0006141493      -29.8683231903       38.7620453822  TIP3      2433            0.0000000000
     24650      2570  TIP3      OH2             3.6960445189      -30.6164373521       40.6075500171  TIP3      2434            0.0000000000
     24651      2570  TIP3      H1              4.2988323029      -31.1884477085       40.0786705709  TIP3      2434            0.0000000000
     24652      2570  TIP3      H2              4.3493241503      -29.9985466840       40.9867726172  TIP3      2434            0.0000000000
     24653      2571  TIP3      OH2           -12.1935352502      -32.3416079863       41.7331146157  TIP3      2435            0.0000000000
     24654      2571  TIP3      H1            -11.8976659020      -31.9346739516       40.8884372509  TIP3      2435            0.0000000000
     24655      2571  TIP3      H2            -13.1454136324      -32.4423244240       41.5679509100  TIP3      2435            0.0000000000
     24656      2572  TIP3      OH2           -11.0641465114      -31.1322281346       39.5875101294  TIP3      2436            0.0000000000
     24657      2572  TIP3      H1            -10.4439387196      -31.8066032568       39.2587095239  TIP3      2436            0.0000000000
     24658      2572  TIP3      H2            -10.5658333611      -30.7768913350       40.3605588707  TIP3      2436            0.0000000000
     24659      2573  TIP3      OH2            -3.3709283359      -15.5229474158       41.0117243696  TIP3      2437            0.0000000000
     24660      2573  TIP3      H1             -2.4155718965      -15.3537931481       40.9562504617  TIP3      2437            0.0000000000
     24661      2573  TIP3      H2             -3.5141388512      -16.0038806156       40.1656521124  TIP3      2437            0.0000000000
     24662      2574  TIP3      OH2           -11.5846602864      -16.0816392268       39.1216834694  TIP3      2438            0.0000000000
     24663      2574  TIP3      H1            -11.6568994530      -15.6239853949       39.9913911043  TIP3      2438            0.0000000000
     24664      2574  TIP3      H2            -10.8422922858      -16.7006028801       39.2606731073  TIP3      2438            0.0000000000
     24665      2575  TIP3      OH2            15.2299253712      -25.2387083843       39.6802686131  TIP3      2439            0.0000000000
     24666      2575  TIP3      H1             15.8122373524      -24.9442025594       40.4088822290  TIP3      2439            0.0000000000
     24667      2575  TIP3      H2             15.7033814724      -26.0280517736       39.3653106152  TIP3      2439            0.0000000000
     24668      2576  TIP3      OH2            17.4937732310      -24.5659964527       41.4843461998  TIP3      2440            0.0000000000
     24669      2576  TIP3      H1             17.9563135612      -24.2173568394       42.2780396762  TIP3      2440            0.0000000000
     24670      2576  TIP3      H2             18.1829021311      -24.3261296468       40.8195954631  TIP3      2440            0.0000000000
     24671      2577  TIP3      OH2            20.5215618086      -32.2738469876       41.9806536741  TIP3      2441            0.0000000000
     24672      2577  TIP3      H1             20.1925384425      -31.3682769023       42.0595147526  TIP3      2441            0.0000000000
     24673      2577  TIP3      H2             21.4761932783      -32.0755819785       41.8318755798  TIP3      2441            0.0000000000
     24674      2578  TIP3      OH2            22.5625795255      -18.4113497023       39.4021402043  TIP3      2442            0.0000000000
     24675      2578  TIP3      H1             22.6141941580      -17.4404565250       39.5165194971  TIP3      2442            0.0000000000
     24676      2578  TIP3      H2             23.0932962324      -18.6866871956       40.1715082141  TIP3      2442            0.0000000000
     24677      2579  TIP3      OH2            18.3421489239      -16.1046071323       40.4064631974  TIP3      2443            0.0000000000
     24678      2579  TIP3      H1             18.7538625929      -16.7485112411       39.7815503947  TIP3      2443            0.0000000000
     24679      2579  TIP3      H2             18.8655958156      -16.2614097799       41.2089372256  TIP3      2443            0.0000000000
     24680      2580  TIP3      OH2            19.5041371287      -23.6195460072       39.9945988518  TIP3      2444            0.0000000000
     24681      2580  TIP3      H1             19.1104580002      -23.5505139065       39.0961559216  TIP3      2444            0.0000000000
     24682      2580  TIP3      H2             20.4424046516      -23.4559026890       39.7771238813  TIP3      2444            0.0000000000
     24683      2581  TIP3      OH2            14.9615154496      -29.8328369079       40.1029665151  TIP3      2445            0.0000000000
     24684      2581  TIP3      H1             14.4383750841      -29.0225097258       40.1727132731  TIP3      2445            0.0000000000
     24685      2581  TIP3      H2             14.3612043627      -30.4325345370       39.6033373439  TIP3      2445            0.0000000000
     24686      2582  TIP3      OH2            11.0776207480      -29.5534271182       39.3077424264  TIP3      2446            0.0000000000
     24687      2582  TIP3      H1             10.6570477344      -29.6838408129       40.1873319016  TIP3      2446            0.0000000000
     24688      2582  TIP3      H2             10.7018920400      -28.6962821869       39.0134241393  TIP3      2446            0.0000000000
     24689      2583  TIP3      OH2             5.6553188509      -29.1456606126       41.8593198358  TIP3      2447            0.0000000000
     24690      2583  TIP3      H1              6.3605282535      -28.8377356916       41.2556237436  TIP3      2447            0.0000000000
     24691      2583  TIP3      H2              5.2381723669      -28.2927708539       42.0577636161  TIP3      2447            0.0000000000
     24692      2584  TIP3      OH2            10.6006509094      -26.4535475288       40.4298119147  TIP3      2448            0.0000000000
     24693      2584  TIP3      H1             10.2380891963      -26.7260993392       39.5628124518  TIP3      2448            0.0000000000
     24694      2584  TIP3      H2             11.2543703275      -25.8088274959       40.0963459965  TIP3      2448            0.0000000000
     24695      2585  TIP3      OH2            17.5887019149      -29.7814527173       40.7021720992  TIP3      2449            0.0000000000
     24696      2585  TIP3      H1             16.6044581832      -29.8663320660       40.6198352489  TIP3      2449            0.0000000000
     24697      2585  TIP3      H2             17.6914837943      -29.6136435104       41.6550260917  TIP3      2449            0.0000000000
     24698      2586  TIP3      OH2            14.6819231102      -20.5049470010       40.4045084459  TIP3      2450            0.0000000000
     24699      2586  TIP3      H1             14.5164277133      -19.6178644228       40.8044532571  TIP3      2450            0.0000000000
     24700      2586  TIP3      H2             14.8184344744      -21.0406949550       41.1939908732  TIP3      2450            0.0000000000
     24701      2587  TIP3      OH2             7.7659091627      -24.0289262647       40.0765581002  TIP3      2451            0.0000000000
     24702      2587  TIP3      H1              8.0266152993      -23.2806731294       40.6650244274  TIP3      2451            0.0000000000
     24703      2587  TIP3      H2              7.0017720501      -24.3938671621       40.5505133080  TIP3      2451            0.0000000000
     24704      2588  TIP3      OH2            19.1914586343      -20.0341218475       40.5009584272  TIP3      2452            0.0000000000
     24705      2588  TIP3      H1             19.3859251220      -19.9038524445       41.4429762166  TIP3      2452            0.0000000000
     24706      2588  TIP3      H2             18.2665286002      -20.3390094764       40.5341433938  TIP3      2452            0.0000000000
     24707      2589  TIP3      OH2            22.8380851606      -15.8644362252       40.2480179358  TIP3      2453            0.0000000000
     24708      2589  TIP3      H1             23.6646257995      -15.4045246252       40.4514358926  TIP3      2453            0.0000000000
     24709      2589  TIP3      H2             22.1966867860      -15.2951512433       40.7269020680  TIP3      2453            0.0000000000
     24710      2590  TIP3      OH2            12.7798345623      -18.6355279732       38.8979684629  TIP3      2454            0.0000000000
     24711      2590  TIP3      H1             12.6251837569      -19.3137225086       38.2240417874  TIP3      2454            0.0000000000
     24712      2590  TIP3      H2             12.4003077096      -19.0912280512       39.6891558345  TIP3      2454            0.0000000000
     24713      2591  TIP3      OH2            11.5786689854      -19.5587922902       41.2960006334  TIP3      2455            0.0000000000
     24714      2591  TIP3      H1             11.1178983777      -20.1080665531       41.9707014177  TIP3      2455            0.0000000000
     24715      2591  TIP3      H2             11.6435158013      -18.6860000525       41.7499699210  TIP3      2455            0.0000000000
     24716      2592  TIP3      OH2             7.9807542453      -22.0288200145       41.8356537256  TIP3      2456            0.0000000000
     24717      2592  TIP3      H1              7.5134729901      -22.4119127735       42.6079681581  TIP3      2456            0.0000000000
     24718      2592  TIP3      H2              8.8812474437      -21.8842690218       42.1904819803  TIP3      2456            0.0000000000
     24719      2593  TIP3      OH2            14.1910445453      -18.1293200412       41.6036158834  TIP3      2457            0.0000000000
     24720      2593  TIP3      H1             13.2778256154      -17.7689668281       41.6752390786  TIP3      2457            0.0000000000
     24721      2593  TIP3      H2             14.6900762882      -17.2951551325       41.5313986270  TIP3      2457            0.0000000000
     24722      2594  TIP3      OH2            11.8030464118      -17.1090007133       42.3428346156  TIP3      2458            0.0000000000
     24723      2594  TIP3      H1             11.8071036595      -16.4225716384       41.6297526022  TIP3      2458            0.0000000000
     24724      2594  TIP3      H2             11.4568719093      -16.5351533375       43.0534153107  TIP3      2458            0.0000000000
     24725      2595  TIP3      OH2             9.6480082608      -30.0189909549       41.7374451260  TIP3      2459            0.0000000000
     24726      2595  TIP3      H1             10.2251538971      -29.3135824605       42.1143277357  TIP3      2459            0.0000000000
     24727      2595  TIP3      H2             10.1068807601      -30.8075444845       42.0796658104  TIP3      2459            0.0000000000
     24728      2596  TIP3      OH2             8.7497781030      -19.5596808843       40.2930110531  TIP3      2460            0.0000000000
     24729      2596  TIP3      H1              9.3178063909      -19.3800747252       41.0520956771  TIP3      2460            0.0000000000
     24730      2596  TIP3      H2              9.2292608535      -20.2919393169       39.8794869743  TIP3      2460            0.0000000000
     24731      2597  TIP3      OH2             6.7682120353      -26.7797367275       40.2411150886  TIP3      2461            0.0000000000
     24732      2597  TIP3      H1              7.5391661518      -26.2317650387       40.0628673973  TIP3      2461            0.0000000000
     24733      2597  TIP3      H2              6.2226088826      -26.6764267382       39.4498355934  TIP3      2461            0.0000000000
     24734      2598  TIP3      OH2            14.8997645269      -16.6905141587       38.9189609861  TIP3      2462            0.0000000000
     24735      2598  TIP3      H1             14.3031859585      -17.4678243732       39.0164092563  TIP3      2462            0.0000000000
     24736      2598  TIP3      H2             15.6513725681      -17.0923120001       38.4334356725  TIP3      2462            0.0000000000
     24737      2599  TIP3      OH2            19.3844268787      -17.8512522982       38.6871785872  TIP3      2463            0.0000000000
     24738      2599  TIP3      H1             19.4723348693      -18.6260151618       39.2891425416  TIP3      2463            0.0000000000
     24739      2599  TIP3      H2             20.2545634350      -17.8401713001       38.2237776994  TIP3      2463            0.0000000000
     24740      2600  TIP3      OH2            10.2273795882      -21.6827838628       38.7945592088  TIP3      2464            0.0000000000
     24741      2600  TIP3      H1             10.6396766594      -21.9965720189       39.6227727270  TIP3      2464            0.0000000000
     24742      2600  TIP3      H2             10.9756776040      -21.8149433867       38.1635788600  TIP3      2464            0.0000000000
     24743      2601  TIP3      OH2            15.6308199396      -20.0862538400       37.9548347891  TIP3      2465            0.0000000000
     24744      2601  TIP3      H1             15.1309882161      -20.2476069750       38.7910836130  TIP3      2465            0.0000000000
     24745      2601  TIP3      H2             15.8757569891      -21.0276816056       37.7957842869  TIP3      2465            0.0000000000
     24746      2602  TIP3      OH2            11.4891457310      -23.0058232370       41.1672854955  TIP3      2466            0.0000000000
     24747      2602  TIP3      H1             11.1153326234      -23.8543768243       41.4514951765  TIP3      2466            0.0000000000
     24748      2602  TIP3      H2             12.2900361147      -23.2972571167       40.7025996559  TIP3      2466            0.0000000000
     24749      2603  TIP3      OH2            12.3408859342      -24.9710127652       38.9499062224  TIP3      2467            0.0000000000
     24750      2603  TIP3      H1             12.2860709270      -24.8858125972       37.9760993010  TIP3      2467            0.0000000000
     24751      2603  TIP3      H2             13.3115405832      -25.0639256724       39.0440214282  TIP3      2467            0.0000000000
     24752      2604  TIP3      OH2            21.9486401715      -23.2062248038       38.9426558638  TIP3      2468            0.0000000000
     24753      2604  TIP3      H1             21.7397022510      -23.5757411375       38.0565290407  TIP3      2468            0.0000000000
     24754      2604  TIP3      H2             21.7480598333      -22.2425790026       38.7944556236  TIP3      2468            0.0000000000
     24755      2605  TIP3      OH2            12.5213277595      -14.9404243582       41.0052250160  TIP3      2469            0.0000000000
     24756      2605  TIP3      H1             13.4887567472      -14.9579602661       41.0410694111  TIP3      2469            0.0000000000
     24757      2605  TIP3      H2             12.3662612730      -14.2079452184       40.3726596787  TIP3      2469            0.0000000000
     24758      2606  TIP3      OH2             5.7966900236      -20.1802096327       40.3448783080  TIP3      2470            0.0000000000
     24759      2606  TIP3      H1              6.7729627715      -20.0825825259       40.3290312770  TIP3      2470            0.0000000000
     24760      2606  TIP3      H2              5.6550863325      -20.7040462865       39.5376414672  TIP3      2470            0.0000000000
     24761      2607  TIP3      OH2            23.5081774396      -24.1853433380       40.8724410616  TIP3      2471            0.0000000000
     24762      2607  TIP3      H1             22.8314107210      -24.0114922986       40.1847680740  TIP3      2471            0.0000000000
     24763      2607  TIP3      H2             23.0962536152      -23.7286681937       41.6292463097  TIP3      2471            0.0000000000
     24764      2608  TIP3      OH2            21.0464913369      -26.7120275873       39.6185079746  TIP3      2472            0.0000000000
     24765      2608  TIP3      H1             21.4158985064      -26.9379011972       38.7554083899  TIP3      2472            0.0000000000
     24766      2608  TIP3      H2             20.5176147449      -27.4742630004       39.8786491427  TIP3      2472            0.0000000000
     24767      2609  TIP3      OH2            21.0056493776      -30.3547425592       39.2786024282  TIP3      2473            0.0000000000
     24768      2609  TIP3      H1             21.3080468864      -29.9631635830       40.1074762102  TIP3      2473            0.0000000000
     24769      2609  TIP3      H2             20.0461798069      -30.3913756257       39.3803737332  TIP3      2473            0.0000000000
     24770      2610  TIP3      OH2            23.0625748175      -31.7046826750       41.1479777517  TIP3      2474            0.0000000000
     24771      2610  TIP3      H1             23.3884394804      -31.8060422375       40.2154759944  TIP3      2474            0.0000000000
     24772      2610  TIP3      H2             23.3258610558      -30.7839349650       41.3506869528  TIP3      2474            0.0000000000
     24773      2611  TIP3      OH2             6.5817057112      -32.4985697778       41.9302208220  TIP3      2475            0.0000000000
     24774      2611  TIP3      H1              6.9331292687      -32.1121216261       41.0893610090  TIP3      2475            0.0000000000
     24775      2611  TIP3      H2              5.6490906266      -32.5722455605       41.6973872443  TIP3      2475            0.0000000000
     24776      2612  TIP3      OH2             7.7319095187      -31.4943776823       39.7413372572  TIP3      2476            0.0000000000
     24777      2612  TIP3      H1              8.1688662843      -32.2002170009       39.2082683849  TIP3      2476            0.0000000000
     24778      2612  TIP3      H2              8.4903859066      -31.0927211782       40.1980728508  TIP3      2476            0.0000000000
     24779      2613  TIP3      OH2            15.6744227794      -15.5228362484       41.1715694940  TIP3      2477            0.0000000000
     24780      2613  TIP3      H1             16.6446549750      -15.4778383612       41.0480554663  TIP3      2477            0.0000000000
     24781      2613  TIP3      H2             15.4116213561      -15.8814582367       40.2927578071  TIP3      2477            0.0000000000
     24782      2614  TIP3      OH2             7.4164851484      -15.9171413078       39.2115081557  TIP3      2478            0.0000000000
     24783      2614  TIP3      H1              7.4391834161      -15.9270786647       40.1827035612  TIP3      2478            0.0000000000
     24784      2614  TIP3      H2              7.9791890947      -16.6821869262       38.9839086933  TIP3      2478            0.0000000000
     24785      2615  TIP3      OH2            29.8586925736      -29.1853117596       39.4154347018  TIP3      2479            0.0000000000
     24786      2615  TIP3      H1             29.6199093753      -29.1581812067       40.3632137228  TIP3      2479            0.0000000000
     24787      2615  TIP3      H2             29.1701106604      -28.6144310980       38.9969129251  TIP3      2479            0.0000000000
     24788      2616  TIP3      OH2            24.3537098305      -29.0825979187       41.8022738226  TIP3      2480            0.0000000000
     24789      2616  TIP3      H1             25.1775335022      -28.8213335706       41.3463807597  TIP3      2480            0.0000000000
     24790      2616  TIP3      H2             23.8199119873      -28.2797080200       41.6837825677  TIP3      2480            0.0000000000
     24791      2617  TIP3      OH2            28.9109974827      -26.7762079175       40.7831458812  TIP3      2481            0.0000000000
     24792      2617  TIP3      H1             27.9916288945      -27.0347707489       40.5789849433  TIP3      2481            0.0000000000
     24793      2617  TIP3      H2             29.1809994652      -26.4271242135       39.9276631917  TIP3      2481            0.0000000000
     24794      2618  TIP3      OH2            26.1117224117      -24.1984028950       40.0547622405  TIP3      2482            0.0000000000
     24795      2618  TIP3      H1             26.5295885880      -23.5186840543       40.6393781666  TIP3      2482            0.0000000000
     24796      2618  TIP3      H2             25.1886786049      -24.1491499718       40.3965819786  TIP3      2482            0.0000000000
     24797      2619  TIP3      OH2            31.5093405223      -19.3348535175       38.9773865521  TIP3      2483            0.0000000000
     24798      2619  TIP3      H1             32.2024865181      -20.0041216052       39.0914393920  TIP3      2483            0.0000000000
     24799      2619  TIP3      H2             30.9135993917      -19.5342787735       39.7313691249  TIP3      2483            0.0000000000
     24800      2620  TIP3      OH2            30.0761043512      -19.7382784147       41.3321698502  TIP3      2484            0.0000000000
     24801      2620  TIP3      H1             29.6399802586      -20.1573054614       42.0995332003  TIP3      2484            0.0000000000
     24802      2620  TIP3      H2             30.0478175236      -18.7985294322       41.6335904589  TIP3      2484            0.0000000000
     24803      2621  TIP3      OH2            27.1227584761      -22.4706016411       41.8909535711  TIP3      2485            0.0000000000
     24804      2621  TIP3      H1             26.7722840217      -22.9166035456       42.6834830715  TIP3      2485            0.0000000000
     24805      2621  TIP3      H2             28.0656734110      -22.3851070865       42.0832126779  TIP3      2485            0.0000000000
     24806      2622  TIP3      OH2            30.0821222365      -17.2680297461       42.3164080494  TIP3      2486            0.0000000000
     24807      2622  TIP3      H1             30.3082045090      -16.6384235017       41.5956137357  TIP3      2486            0.0000000000
     24808      2622  TIP3      H2             30.4113477044      -16.7487785135       43.0674897123  TIP3      2486            0.0000000000
     24809      2623  TIP3      OH2            28.8530842535      -29.8664497574       41.8706017553  TIP3      2487            0.0000000000
     24810      2623  TIP3      H1             29.4918325569      -29.3902436643       42.4491149092  TIP3      2487            0.0000000000
     24811      2623  TIP3      H2             29.3135330808      -30.7100336131       41.7501118827  TIP3      2487            0.0000000000
     24812      2624  TIP3      OH2            27.4321985946      -19.6783275614       40.3486243528  TIP3      2488            0.0000000000
     24813      2624  TIP3      H1             28.3633190464      -19.5585081079       40.6030635042  TIP3      2488            0.0000000000
     24814      2624  TIP3      H2             27.5137755780      -20.5542697254       39.9278512201  TIP3      2488            0.0000000000
     24815      2625  TIP3      OH2            25.9753401438      -26.9617965792       40.1071240472  TIP3      2489            0.0000000000
     24816      2625  TIP3      H1             26.0472090733      -25.9765501438       40.1441660326  TIP3      2489            0.0000000000
     24817      2625  TIP3      H2             25.1781497645      -27.1119546099       39.5763831615  TIP3      2489            0.0000000000
     24818      2626  TIP3      OH2            28.6340918041      -21.7563096448       38.8582187853  TIP3      2490            0.0000000000
     24819      2626  TIP3      H1             28.8302506252      -22.3671388043       39.5937574228  TIP3      2490            0.0000000000
     24820      2626  TIP3      H2             29.5458164184      -21.5591129724       38.5709894370  TIP3      2490            0.0000000000
     24821      2627  TIP3      OH2            30.1641683715      -23.3620648645       40.7039341535  TIP3      2491            0.0000000000
     24822      2627  TIP3      H1             30.0866848806      -24.1998460404       41.1864122526  TIP3      2491            0.0000000000
     24823      2627  TIP3      H2             30.6023649228      -23.6432133074       39.8768667788  TIP3      2491            0.0000000000
     24824      2628  TIP3      OH2            31.7500872624      -25.3012668734       39.2698919679  TIP3      2492            0.0000000000
     24825      2628  TIP3      H1             31.4293128868      -26.0672225488       38.7578601596  TIP3      2492            0.0000000000
     24826      2628  TIP3      H2             32.2495131814      -24.8404111236       38.5645648572  TIP3      2492            0.0000000000
     24827      2629  TIP3      OH2            31.4514468186      -15.2486293052       40.8212839875  TIP3      2493            0.0000000000
     24828      2629  TIP3      H1             32.3608722875      -15.3467377313       41.1439463129  TIP3      2493            0.0000000000
     24829      2629  TIP3      H2             31.5782948141      -14.5734066015       40.1177926655  TIP3      2493            0.0000000000
     24830      2630  TIP3      OH2            24.5232940310      -20.3698428595       40.4877485431  TIP3      2494            0.0000000000
     24831      2630  TIP3      H1             25.4665402784      -20.1544998730       40.3670643299  TIP3      2494            0.0000000000
     24832      2630  TIP3      H2             24.2964061718      -20.6855058935       39.5988469472  TIP3      2494            0.0000000000
     24833      2631  TIP3      OH2            25.7735737070      -32.1970317260       41.7613126409  TIP3      2495            0.0000000000
     24834      2631  TIP3      H1             26.0703719311      -31.5634646271       41.0671049838  TIP3      2495            0.0000000000
     24835      2631  TIP3      H2             24.8545423101      -32.3733746079       41.4903076132  TIP3      2495            0.0000000000
     24836      2632  TIP3      OH2            27.1364776806      -31.1061026924       39.6990044448  TIP3      2496            0.0000000000
     24837      2632  TIP3      H1             27.3583188401      -31.8057732896       39.0510603655  TIP3      2496            0.0000000000
     24838      2632  TIP3      H2             28.0104516641      -30.9149757346       40.0862335524  TIP3      2496            0.0000000000
     24839      2633  TIP3      OH2            26.3406771255      -16.2685000786       39.0978166248  TIP3      2497            0.0000000000
     24840      2633  TIP3      H1             25.9987060332      -16.8143693567       39.8189037738  TIP3      2497            0.0000000000
     24841      2633  TIP3      H2             27.0604250092      -16.8400090548       38.7687828610  TIP3      2497            0.0000000000
     24842      2634  TIP3      OH2           -22.3984994515       -6.3420621535       39.6748134356  TIP3      2498            0.0000000000
     24843      2634  TIP3      H1            -21.6533868179       -6.1223784762       40.2715947658  TIP3      2498            0.0000000000
     24844      2634  TIP3      H2            -22.4296685575       -7.2997837846       39.8196592531  TIP3      2498            0.0000000000
     24845      2635  TIP3      OH2           -19.9092425161       -6.0734294874       41.2479467571  TIP3      2499            0.0000000000
     24846      2635  TIP3      H1            -19.6160393207       -5.9441110518       42.1753129928  TIP3      2499            0.0000000000
     24847      2635  TIP3      H2            -19.3242616370       -5.4502116063       40.7596214370  TIP3      2499            0.0000000000
     24848      2636  TIP3      OH2           -16.5939277883      -14.1357486946       41.7892813418  TIP3      2500            0.0000000000
     24849      2636  TIP3      H1            -17.3188721027      -13.7697217115       42.3064649972  TIP3      2500            0.0000000000
     24850      2636  TIP3      H2            -16.0602806806      -13.3494651784       41.5406507973  TIP3      2500            0.0000000000
     24851      2637  TIP3      OH2           -15.2748734110        0.4225770826       39.3424039481  TIP3      2501            0.0000000000
     24852      2637  TIP3      H1            -15.1133221637        1.3710367454       39.5406365832  TIP3      2501            0.0000000000
     24853      2637  TIP3      H2            -14.8038167454        0.0214628457       40.1016946280  TIP3      2501            0.0000000000
     24854      2638  TIP3      OH2           -19.5139357582        2.8548259748       40.3610955677  TIP3      2502            0.0000000000
     24855      2638  TIP3      H1            -19.1735774557        2.1636504796       39.7380866999  TIP3      2502            0.0000000000
     24856      2638  TIP3      H2            -19.1977161697        2.5053804243       41.2166721996  TIP3      2502            0.0000000000
     24857      2639  TIP3      OH2           -18.3942894305       -4.1890471347       40.0242987096  TIP3      2503            0.0000000000
     24858      2639  TIP3      H1            -18.6281760144       -4.3139373447       39.0784174651  TIP3      2503            0.0000000000
     24859      2639  TIP3      H2            -17.4678352012       -3.9236013991       39.9129369614  TIP3      2503            0.0000000000
     24860      2640  TIP3      OH2           -22.7359024726      -11.2971907570       40.4114611363  TIP3      2504            0.0000000000
     24861      2640  TIP3      H1            -23.2577127888      -11.3057528891       41.2208837120  TIP3      2504            0.0000000000
     24862      2640  TIP3      H2            -23.2292386478      -11.9086483720       39.8515509927  TIP3      2504            0.0000000000
     24863      2641  TIP3      OH2           -26.6515293305      -10.4311306156       39.1480524967  TIP3      2505            0.0000000000
     24864      2641  TIP3      H1            -27.1339172560      -10.4420152294       39.9956066566  TIP3      2505            0.0000000000
     24865      2641  TIP3      H2            -27.0213420456       -9.6223846671       38.7269406220  TIP3      2505            0.0000000000
     24866      2642  TIP3      OH2           -31.5551272656      -10.2475173292       41.8933435046  TIP3      2506            0.0000000000
     24867      2642  TIP3      H1            -31.3789745495       -9.8628168895       41.0058531304  TIP3      2506            0.0000000000
     24868      2642  TIP3      H2            -32.4837229209      -10.0454943203       42.0757696020  TIP3      2506            0.0000000000
     24869      2643  TIP3      OH2           -27.4404907883       -8.1168982558       40.6742960574  TIP3      2507            0.0000000000
     24870      2643  TIP3      H1            -28.2411077730       -8.2710348989       40.1548128821  TIP3      2507            0.0000000000
     24871      2643  TIP3      H2            -26.8949732501       -7.6300745951       40.0341969984  TIP3      2507            0.0000000000
     24872      2644  TIP3      OH2           -20.3895654609       -9.8472904197       40.0128252255  TIP3      2508            0.0000000000
     24873      2644  TIP3      H1            -21.2887623030      -10.1472447677       40.2895371070  TIP3      2508            0.0000000000
     24874      2644  TIP3      H2            -19.9157422567       -9.8288457985       40.8528103453  TIP3      2508            0.0000000000
     24875      2645  TIP3      OH2           -22.8811985228       -1.6115174964       40.4799733419  TIP3      2509            0.0000000000
     24876      2645  TIP3      H1            -23.0325330493       -0.7420439447       40.9232469805  TIP3      2509            0.0000000000
     24877      2645  TIP3      H2            -22.9832210457       -2.2306349038       41.2136213860  TIP3      2509            0.0000000000
     24878      2646  TIP3      OH2           -30.3691261273       -5.0888908802       40.1936659946  TIP3      2510            0.0000000000
     24879      2646  TIP3      H1            -29.8049261958       -4.8976832810       40.9689687599  TIP3      2510            0.0000000000
     24880      2646  TIP3      H2            -31.2138306956       -4.7362730967       40.5200081383  TIP3      2510            0.0000000000
     24881      2647  TIP3      OH2           -18.6698048197       -1.2046144705       40.3194753075  TIP3      2511            0.0000000000
     24882      2647  TIP3      H1            -18.8337509935       -1.0124340725       41.2542067106  TIP3      2511            0.0000000000
     24883      2647  TIP3      H2            -19.4461546659       -1.7560575633       40.1232683745  TIP3      2511            0.0000000000
     24884      2648  TIP3      OH2           -14.6792260378        2.8526235365       40.3237013348  TIP3      2512            0.0000000000
     24885      2648  TIP3      H1            -13.8725620025        3.3666882484       40.4846838933  TIP3      2512            0.0000000000
     24886      2648  TIP3      H2            -15.3293135416        3.4073580763       40.8067779757  TIP3      2512            0.0000000000
     24887      2649  TIP3      OH2           -24.8934936962        0.1162399487       38.6558232088  TIP3      2513            0.0000000000
     24888      2649  TIP3      H1            -25.0547063575       -0.6004342993       38.0290020417  TIP3      2513            0.0000000000
     24889      2649  TIP3      H2            -24.7634964230       -0.3669402049       39.4882433483  TIP3      2513            0.0000000000
     24890      2650  TIP3      OH2           -26.1828529723       -0.9912036676       41.4925869728  TIP3      2514            0.0000000000
     24891      2650  TIP3      H1            -26.6964754181       -1.4177943574       42.2068493978  TIP3      2514            0.0000000000
     24892      2650  TIP3      H2            -26.0678752256       -0.0694021982       41.8120207368  TIP3      2514            0.0000000000
     24893      2651  TIP3      OH2           -29.7621556625       -3.2401861990       42.1582987711  TIP3      2515            0.0000000000
     24894      2651  TIP3      H1            -30.0609228058       -3.8832956758       42.8478207044  TIP3      2515            0.0000000000
     24895      2651  TIP3      H2            -28.8464379194       -3.0808462793       42.4733322420  TIP3      2515            0.0000000000
     24896      2652  TIP3      OH2           -23.5396009813        0.8608243172       41.3117540551  TIP3      2516            0.0000000000
     24897      2652  TIP3      H1            -24.3971763452        1.2086579617       41.6357995674  TIP3      2516            0.0000000000
     24898      2652  TIP3      H2            -23.0009480991        1.6741383910       41.3780152569  TIP3      2516            0.0000000000
     24899      2653  TIP3      OH2           -25.9165640056        1.6459727365       42.2115830652  TIP3      2517            0.0000000000
     24900      2653  TIP3      H1            -26.2267953766        2.2492623645       41.5105868621  TIP3      2517            0.0000000000
     24901      2653  TIP3      H2            -25.9078423544        2.2798543400       42.9464000032  TIP3      2517            0.0000000000
     24902      2654  TIP3      OH2           -27.7256005412      -11.6755802300       41.5445914537  TIP3      2518            0.0000000000
     24903      2654  TIP3      H1            -27.0364617800      -11.1081340800       41.9497938797  TIP3      2518            0.0000000000
     24904      2654  TIP3      H2            -27.1771927461      -12.3250118502       41.0664871193  TIP3      2518            0.0000000000
     24905      2655  TIP3      OH2           -28.9253507431       -0.1504900911       40.5867856459  TIP3      2519            0.0000000000
     24906      2655  TIP3      H1            -28.8776738721        0.4678393074       41.3286323135  TIP3      2519            0.0000000000
     24907      2655  TIP3      H2            -28.0386377588       -0.0565778283       40.1913784629  TIP3      2519            0.0000000000
     24908      2656  TIP3      OH2           -30.8878013884       -8.3059319989       39.9792143562  TIP3      2520            0.0000000000
     24909      2656  TIP3      H1            -30.3632793371       -7.5037787004       40.1168338131  TIP3      2520            0.0000000000
     24910      2656  TIP3      H2            -31.7451319733       -7.9179088543       39.7743444933  TIP3      2520            0.0000000000
     24911      2657  TIP3      OH2           -22.7234164099        2.0854781154       38.6837896565  TIP3      2521            0.0000000000
     24912      2657  TIP3      H1            -23.1721869969        1.2125644381       38.7739127355  TIP3      2521            0.0000000000
     24913      2657  TIP3      H2            -21.8699200150        1.8317726191       38.2650010052  TIP3      2521            0.0000000000
     24914      2658  TIP3      OH2           -18.4038674808        1.0988885130       38.6697794905  TIP3      2522            0.0000000000
     24915      2658  TIP3      H1            -18.3691597476        0.3430513931       39.2903639925  TIP3      2522            0.0000000000
     24916      2658  TIP3      H2            -17.5419557129        1.0271211653       38.2129521786  TIP3      2522            0.0000000000
     24917      2659  TIP3      OH2           -27.2973664010       -3.0175563453       38.6981778552  TIP3      2523            0.0000000000
     24918      2659  TIP3      H1            -26.9320821952       -3.3878383763       39.5264504190  TIP3      2523            0.0000000000
     24919      2659  TIP3      H2            -26.5144104732       -3.1577499886       38.1073891077  TIP3      2523            0.0000000000
     24920      2660  TIP3      OH2           -21.8286675836       -1.4171762963       37.9876232289  TIP3      2524            0.0000000000
     24921      2660  TIP3      H1            -22.3212724004       -1.4293658792       38.8367842222  TIP3      2524            0.0000000000
     24922      2660  TIP3      H2            -21.7696672616       -2.3884156574       37.8436469893  TIP3      2524            0.0000000000
     24923      2661  TIP3      OH2           -26.1881108052       -4.6216664239       40.5747759965  TIP3      2525            0.0000000000
     24924      2661  TIP3      H1            -26.1228504890       -5.5245013788       40.9442418680  TIP3      2525            0.0000000000
     24925      2661  TIP3      H2            -25.3092825127       -4.5170430270       40.1590502229  TIP3      2525            0.0000000000
     24926      2662  TIP3      OH2           -25.3793864553       -6.8199153963       38.9182064846  TIP3      2526            0.0000000000
     24927      2662  TIP3      H1            -25.8495463303       -6.5075491196       38.1160538477  TIP3      2526            0.0000000000
     24928      2662  TIP3      H2            -24.4656840353       -6.5297649548       38.7570392088  TIP3      2526            0.0000000000
     24929      2663  TIP3      OH2           -15.5713996163       -4.2095525834       38.9983044026  TIP3      2527            0.0000000000
     24930      2663  TIP3      H1            -15.7569816266       -4.6890116442       38.1550970935  TIP3      2527            0.0000000000
     24931      2663  TIP3      H2            -15.8690368845       -3.2959695243       38.7504228133  TIP3      2527            0.0000000000
     24932      2664  TIP3      OH2           -24.8675850063        4.0640902354       41.4495814378  TIP3      2528            0.0000000000
     24933      2664  TIP3      H1            -23.9321039442        3.8726371072       41.2522347241  TIP3      2528            0.0000000000
     24934      2664  TIP3      H2            -25.0580580811        4.7333446819       40.7626405336  TIP3      2528            0.0000000000
     24935      2665  TIP3      OH2           -32.5311642426       -0.5026531066       39.9473943022  TIP3      2529            0.0000000000
     24936      2665  TIP3      H1            -32.6275702197        0.1530664964       40.6522753211  TIP3      2529            0.0000000000
     24937      2665  TIP3      H2            -33.4664422573       -0.5269837299       39.6229320670  TIP3      2529            0.0000000000
     24938      2666  TIP3      OH2           -13.9775609708       -5.1999731929       40.9831126297  TIP3      2530            0.0000000000
     24939      2666  TIP3      H1            -14.6110696309       -5.1908919549       40.2344028807  TIP3      2530            0.0000000000
     24940      2666  TIP3      H2            -13.7836262556       -4.2542144040       41.1182841487  TIP3      2530            0.0000000000
     24941      2667  TIP3      OH2           -16.2545470269       -7.7196462739       39.6596295216  TIP3      2531            0.0000000000
     24942      2667  TIP3      H1            -15.7510829016       -7.4248653208       38.8741758715  TIP3      2531            0.0000000000
     24943      2667  TIP3      H2            -16.4255703254       -8.6604038252       39.4586237816  TIP3      2531            0.0000000000
     24944      2668  TIP3      OH2           -16.4755774415      -10.4214957352       39.0583763506  TIP3      2532            0.0000000000
     24945      2668  TIP3      H1            -15.9182495783      -11.0131739026       39.6101906255  TIP3      2532            0.0000000000
     24946      2668  TIP3      H2            -17.3706783751      -10.6610129977       39.3444954509  TIP3      2532            0.0000000000
     24947      2669  TIP3      OH2           -14.9779361947      -12.3413423456       40.7143168087  TIP3      2533            0.0000000000
     24948      2669  TIP3      H1            -14.6120798618      -12.8165697237       39.9271343221  TIP3      2533            0.0000000000
     24949      2669  TIP3      H2            -14.1989017109      -11.8224730414       41.0006236977  TIP3      2533            0.0000000000
     24950      2670  TIP3      OH2           -31.8286514483      -13.7366769573       41.3549527872  TIP3      2534            0.0000000000
     24951      2670  TIP3      H1            -30.9982086863      -13.4043583869       40.9997323991  TIP3      2534            0.0000000000
     24952      2670  TIP3      H2            -32.4358025349      -13.1001303610       40.9578766355  TIP3      2534            0.0000000000
     24953      2671  TIP3      OH2           -29.9994928839      -11.8340611681       39.9525953617  TIP3      2535            0.0000000000
     24954      2671  TIP3      H1            -29.3036231875      -12.3085189210       39.4656918887  TIP3      2535            0.0000000000
     24955      2671  TIP3      H2            -29.5252676482      -11.6684063396       40.7868137927  TIP3      2535            0.0000000000
     24956      2672  TIP3      OH2           -22.1902255258        3.3126832644       41.0128140566  TIP3      2536            0.0000000000
     24957      2672  TIP3      H1            -21.2370994734        3.4007336181       40.8002525594  TIP3      2536            0.0000000000
     24958      2672  TIP3      H2            -22.5029262233        2.9321672059       40.1605891840  TIP3      2536            0.0000000000
     24959      2673  TIP3      OH2           -29.7299193327        2.4626887568       38.9247858694  TIP3      2537            0.0000000000
     24960      2673  TIP3      H1            -29.7852204078        2.9030017630       39.7863604167  TIP3      2537            0.0000000000
     24961      2673  TIP3      H2            -28.8053905686        2.1255874899       38.9521954712  TIP3      2537            0.0000000000
     24962      2674  TIP3      OH2            -3.5357721049       -6.2162521849       39.5372507857  TIP3      2538            0.0000000000
     24963      2674  TIP3      H1             -2.9084817525       -5.9602757937       40.2519322716  TIP3      2538            0.0000000000
     24964      2674  TIP3      H2             -3.6074953335       -7.1770409202       39.6696299038  TIP3      2538            0.0000000000
     24965      2675  TIP3      OH2            -1.3001452471       -5.8287492433       41.2637717593  TIP3      2539            0.0000000000
     24966      2675  TIP3      H1             -0.9749965023       -5.7522929999       42.1869927980  TIP3      2539            0.0000000000
     24967      2675  TIP3      H2             -0.5072753619       -5.5205705192       40.7637856840  TIP3      2539            0.0000000000
     24968      2676  TIP3      OH2             2.5437115109      -14.2322575454       41.8060626771  TIP3      2540            0.0000000000
     24969      2676  TIP3      H1              1.7780716923      -13.9750599525       42.3285851076  TIP3      2540            0.0000000000
     24970      2676  TIP3      H2              2.9116479316      -13.3648400916       41.5178981343  TIP3      2540            0.0000000000
     24971      2677  TIP3      OH2             4.4514090108        0.2673489853       39.6983980105  TIP3      2541            0.0000000000
     24972      2677  TIP3      H1              4.3910195556        1.0185442882       40.3148757377  TIP3      2541            0.0000000000
     24973      2677  TIP3      H2              4.8685973623       -0.4089536723       40.2692780165  TIP3      2541            0.0000000000
     24974      2678  TIP3      OH2            -0.7427686055        2.8927850018       41.1556379954  TIP3      2542            0.0000000000
     24975      2678  TIP3      H1             -0.6056236260        2.6158444971       40.2365927607  TIP3      2542            0.0000000000
     24976      2678  TIP3      H2              0.0517854643        2.4918436368       41.5614230760  TIP3      2542            0.0000000000
     24977      2679  TIP3      OH2             0.6901373896       -4.3648485689       40.1974503664  TIP3      2543            0.0000000000
     24978      2679  TIP3      H1              0.2648955972       -4.4355767742       39.3212534576  TIP3      2543            0.0000000000
     24979      2679  TIP3      H2              1.6234683638       -4.3563320713       39.9015812545  TIP3      2543            0.0000000000
     24980      2680  TIP3      OH2            -3.7075949896      -11.2224408748       40.5465591346  TIP3      2544            0.0000000000
     24981      2680  TIP3      H1             -4.4724361054      -10.8064488583       40.9604390231  TIP3      2544            0.0000000000
     24982      2680  TIP3      H2             -4.0941435218      -11.7997743682       39.8719870365  TIP3      2544            0.0000000000
     24983      2681  TIP3      OH2            -7.7104044438      -10.5544534159       39.2450659739  TIP3      2545            0.0000000000
     24984      2681  TIP3      H1             -8.1938841354      -10.5791114550       40.0874454576  TIP3      2545            0.0000000000
     24985      2681  TIP3      H2             -8.1772202756       -9.8165670212       38.7754143832  TIP3      2545            0.0000000000
     24986      2682  TIP3      OH2           -13.1830346874      -10.4621945673       41.6083224872  TIP3      2546            0.0000000000
     24987      2682  TIP3      H1            -12.3088671956      -10.2603232537       41.2164218349  TIP3      2546            0.0000000000
     24988      2682  TIP3      H2            -13.5492348089       -9.5688472484       41.6443927180  TIP3      2546            0.0000000000
     24989      2683  TIP3      OH2            -8.6601980059       -7.9619458970       40.6849891049  TIP3      2547            0.0000000000
     24990      2683  TIP3      H1             -9.4173079672       -8.1995768795       40.1085210809  TIP3      2547            0.0000000000
     24991      2683  TIP3      H2             -8.1446656789       -7.3911030965       40.0902193891  TIP3      2547            0.0000000000
     24992      2684  TIP3      OH2            -1.3844375944       -9.8827274535       40.5242765447  TIP3      2548            0.0000000000
     24993      2684  TIP3      H1             -2.2327508220      -10.3466549721       40.7269976244  TIP3      2548            0.0000000000
     24994      2684  TIP3      H2             -1.0200611365       -9.6885228968       41.4056113456  TIP3      2548            0.0000000000
     24995      2685  TIP3      OH2            -3.7552408809       -1.5232733890       40.3948007672  TIP3      2549            0.0000000000
     24996      2685  TIP3      H1             -3.7501196551       -0.6029511109       40.7363318931  TIP3      2549            0.0000000000
     24997      2685  TIP3      H2             -3.9079532113       -2.0001386464       41.2212797923  TIP3      2549            0.0000000000
     24998      2686  TIP3      OH2           -11.2323011977       -5.2543672348       40.1346638429  TIP3      2550            0.0000000000
     24999      2686  TIP3      H1            -10.9195101360       -4.5124326153       40.7091242348  TIP3      2550            0.0000000000
     25000      2686  TIP3      H2            -12.1347357505       -5.3785168340       40.4853432865  TIP3      2550            0.0000000000
     25001      2687  TIP3      OH2             0.1674066353       -1.1470245196       40.4302634760  TIP3      2551            0.0000000000
     25002      2687  TIP3      H1             -0.4028506259       -1.1191987071       41.2165082356  TIP3      2551            0.0000000000
     25003      2687  TIP3      H2             -0.3906462598       -1.6635576427       39.8264282821  TIP3      2551            0.0000000000
     25004      2688  TIP3      OH2             4.2748341834        3.2105819551       40.8198428177  TIP3      2552            0.0000000000
     25005      2688  TIP3      H1              4.2363743105        3.9880429093       40.2524881352  TIP3      2552            0.0000000000
     25006      2688  TIP3      H2              3.3414603717        3.0036780344       40.9708352498  TIP3      2552            0.0000000000
     25007      2689  TIP3      OH2            -6.5934373301       -0.1347566691       39.0000442205  TIP3      2553            0.0000000000
     25008      2689  TIP3      H1             -6.3844334566       -0.8634412310       38.4011049145  TIP3      2553            0.0000000000
     25009      2689  TIP3      H2             -6.7949333259       -0.5612995776       39.8610048779  TIP3      2553            0.0000000000
     25010      2690  TIP3      OH2            -7.3557428724       -0.8074412452       41.4431111198  TIP3      2554            0.0000000000
     25011      2690  TIP3      H1             -8.0327945998       -1.1861098243       42.0477244869  TIP3      2554            0.0000000000
     25012      2690  TIP3      H2             -7.1194057967        0.0422438008       41.8876972360  TIP3      2554            0.0000000000
     25013      2691  TIP3      OH2           -10.8957723613       -3.2247666547       41.8046480029  TIP3      2555            0.0000000000
     25014      2691  TIP3      H1            -11.3548480521       -3.7436903720       42.4996124226  TIP3      2555            0.0000000000
     25015      2691  TIP3      H2            -10.0889170452       -2.9498802148       42.2844076482  TIP3      2555            0.0000000000
     25016      2692  TIP3      OH2            -4.2997535492        0.9154683183       41.3219636792  TIP3      2556            0.0000000000
     25017      2692  TIP3      H1             -5.2343839274        1.0463288686       41.5757208239  TIP3      2556            0.0000000000
     25018      2692  TIP3      H2             -4.0686856684        1.8326022788       41.0680802609  TIP3      2556            0.0000000000
     25019      2693  TIP3      OH2            -6.6942978316        1.6324912368       42.2176755816  TIP3      2557            0.0000000000
     25020      2693  TIP3      H1             -6.8160551776        2.3423567935       41.5285893312  TIP3      2557            0.0000000000
     25021      2693  TIP3      H2             -6.8004522166        2.1600784855       43.0259082546  TIP3      2557            0.0000000000
     25022      2694  TIP3      OH2            -8.6815835942      -11.8372546035       41.8360527976  TIP3      2558            0.0000000000
     25023      2694  TIP3      H1             -7.9665977615      -11.3117763843       42.2322983130  TIP3      2558            0.0000000000
     25024      2694  TIP3      H2             -8.1807626086      -12.4797468999       41.3110853072  TIP3      2558            0.0000000000
     25025      2695  TIP3      OH2           -10.0417767609       -0.7144174929       40.0636274846  TIP3      2559            0.0000000000
     25026      2695  TIP3      H1             -9.1425256208       -0.4599184609       40.3272543311  TIP3      2559            0.0000000000
     25027      2695  TIP3      H2             -9.9536980960       -1.6721552243       39.9155276690  TIP3      2559            0.0000000000
     25028      2696  TIP3      OH2           -11.4431913115       -8.1803984794       39.8618086568  TIP3      2560            0.0000000000
     25029      2696  TIP3      H1            -11.1783351536       -7.3728497624       40.3401925401  TIP3      2560            0.0000000000
     25030      2696  TIP3      H2            -12.4042642190       -8.0859701631       39.8037413674  TIP3      2560            0.0000000000
     25031      2697  TIP3      OH2            -4.6292671537        1.5672428590       38.5820069433  TIP3      2561            0.0000000000
     25032      2697  TIP3      H1             -5.0533492818        0.7571272024       38.9218053689  TIP3      2561            0.0000000000
     25033      2697  TIP3      H2             -3.7288280683        1.2359244014       38.3651039373  TIP3      2561            0.0000000000
     25034      2698  TIP3      OH2             1.3021479310        1.5704759833       39.4783210018  TIP3      2562            0.0000000000
     25035      2698  TIP3      H1              0.8653328333        0.7595793490       39.7863962465  TIP3      2562            0.0000000000
     25036      2698  TIP3      H2              1.4782697860        1.3870208698       38.5340346495  TIP3      2562            0.0000000000
     25037      2699  TIP3      OH2            -8.5753191182       -2.9192537329       38.8928814681  TIP3      2563            0.0000000000
     25038      2699  TIP3      H1             -8.0902242593       -2.8927191933       39.7389930814  TIP3      2563            0.0000000000
     25039      2699  TIP3      H2             -7.8333889022       -3.1129210554       38.2713538710  TIP3      2563            0.0000000000
     25040      2700  TIP3      OH2            -3.5185005756       -1.3331377407       37.8213500021  TIP3      2564            0.0000000000
     25041      2700  TIP3      H1             -3.5523771846       -1.3329100236       38.8060589814  TIP3      2564            0.0000000000
     25042      2700  TIP3      H2             -3.5961513532       -2.3044247806       37.7509035128  TIP3      2564            0.0000000000
     25043      2701  TIP3      OH2            -7.1264482636       -4.2688387305       41.2238946556  TIP3      2565            0.0000000000
     25044      2701  TIP3      H1             -7.7177928841       -4.9246459907       41.6139014982  TIP3      2565            0.0000000000
     25045      2701  TIP3      H2             -6.6896320094       -4.8251686649       40.5524118982  TIP3      2565            0.0000000000
     25046      2702  TIP3      OH2            -6.4528539762       -6.1332363124       39.0034878762  TIP3      2566            0.0000000000
     25047      2702  TIP3      H1             -6.7370796121       -6.0108417959       38.0712900114  TIP3      2566            0.0000000000
     25048      2702  TIP3      H2             -5.4811080433       -6.2006129480       38.8792004449  TIP3      2566            0.0000000000
     25049      2703  TIP3      OH2             3.1855703219       -4.1108212266       39.0559642115  TIP3      2567            0.0000000000
     25050      2703  TIP3      H1              2.9796797542       -4.4097351770       38.1408808678  TIP3      2567            0.0000000000
     25051      2703  TIP3      H2              3.0601429121       -3.1293694816       38.9561744445  TIP3      2567            0.0000000000
     25052      2704  TIP3      OH2            -6.3758460623        3.8535567668       40.8739221458  TIP3      2568            0.0000000000
     25053      2704  TIP3      H1             -5.4100877946        3.9559184227       40.7459887720  TIP3      2568            0.0000000000
     25054      2704  TIP3      H2             -6.7021481519        4.4996095426       40.2111907982  TIP3      2568            0.0000000000
     25055      2705  TIP3      OH2           -13.2036068999       -1.2271334672       40.5542366358  TIP3      2569            0.0000000000
     25056      2705  TIP3      H1            -12.3641733051       -0.7276572616       40.5441517628  TIP3      2569            0.0000000000
     25057      2705  TIP3      H2            -13.1327290685       -1.7339391938       39.7213310690  TIP3      2569            0.0000000000
     25058      2706  TIP3      OH2             4.5722947074       -5.2587886426       41.1187826446  TIP3      2570            0.0000000000
     25059      2706  TIP3      H1              4.0097348838       -5.1769810347       40.3187450207  TIP3      2570            0.0000000000
     25060      2706  TIP3      H2              4.6056977225       -4.3323237449       41.3983763428  TIP3      2570            0.0000000000
     25061      2707  TIP3      OH2             2.5416846377       -7.7510688937       39.8486935776  TIP3      2571            0.0000000000
     25062      2707  TIP3      H1              3.0214821195       -7.3607000842       39.0962096030  TIP3      2571            0.0000000000
     25063      2707  TIP3      H2              2.4564374251       -8.6904827666       39.5980331561  TIP3      2571            0.0000000000
     25064      2708  TIP3      OH2             2.2367550741      -10.4337299983       39.1526315142  TIP3      2572            0.0000000000
     25065      2708  TIP3      H1              2.7786207007      -11.0409153399       39.7073678388  TIP3      2572            0.0000000000
     25066      2708  TIP3      H2              1.3492936300      -10.5780735554       39.5125065955  TIP3      2572            0.0000000000
     25067      2709  TIP3      OH2             3.8740399056      -12.1572165881       40.6740327916  TIP3      2573            0.0000000000
     25068      2709  TIP3      H1              4.1934966730      -12.6371925911       39.8693689584  TIP3      2573            0.0000000000
     25069      2709  TIP3      H2              4.7178128758      -11.8426965651       41.0377574542  TIP3      2573            0.0000000000
     25070      2710  TIP3      OH2           -12.1915941748      -14.0939507050       41.0895240101  TIP3      2574            0.0000000000
     25071      2710  TIP3      H1            -11.9745511317      -13.2620096299       40.6428537058  TIP3      2574            0.0000000000
     25072      2710  TIP3      H2            -12.6815618235      -13.8151655781       41.8760062062  TIP3      2574            0.0000000000
     25073      2711  TIP3      OH2           -10.7382656609      -11.5763502448       40.1957571605  TIP3      2575            0.0000000000
     25074      2711  TIP3      H1            -10.1769362076      -12.0257506656       39.5359717393  TIP3      2575            0.0000000000
     25075      2711  TIP3      H2            -10.1753869517      -11.5991721767       41.0024867989  TIP3      2575            0.0000000000
     25076      2712  TIP3      OH2            -3.5909208195        3.5310300571       40.4337073982  TIP3      2576            0.0000000000
     25077      2712  TIP3      H1             -2.6772764779        3.8428184547       40.5428501705  TIP3      2576            0.0000000000
     25078      2712  TIP3      H2             -3.4759626553        2.8366036189       39.7610847080  TIP3      2576            0.0000000000
     25079      2713  TIP3      OH2           -11.5195548582        2.5565471300       38.8202401607  TIP3      2577            0.0000000000
     25080      2713  TIP3      H1            -11.4912219173        2.8897293502       39.7308935370  TIP3      2577            0.0000000000
     25081      2713  TIP3      H2            -10.9583874280        1.7557325692       38.8658012689  TIP3      2577            0.0000000000
     25082      2714  TIP3      OH2            15.3644475073       -6.2619876457       39.7439610420  TIP3      2578            0.0000000000
     25083      2714  TIP3      H1             16.1316593071       -6.1421561493       40.3397931341  TIP3      2578            0.0000000000
     25084      2714  TIP3      H2             15.3269985968       -7.2370717083       39.7280277582  TIP3      2578            0.0000000000
     25085      2715  TIP3      OH2            17.8850511589       -5.7743912259       41.6171327364  TIP3      2579            0.0000000000
     25086      2715  TIP3      H1             18.2525382637       -5.9015280334       42.5108821431  TIP3      2579            0.0000000000
     25087      2715  TIP3      H2             18.6638370938       -5.4635527397       41.0874667288  TIP3      2579            0.0000000000
     25088      2716  TIP3      OH2            21.3122643224      -14.0978597673       41.5503364914  TIP3      2580            0.0000000000
     25089      2716  TIP3      H1             20.6040403082      -13.8087896357       42.1303347001  TIP3      2580            0.0000000000
     25090      2716  TIP3      H2             21.8217490354      -13.2742587970       41.3996632189  TIP3      2580            0.0000000000
     25091      2717  TIP3      OH2            22.6290012629        0.6384852703       39.3487775376  TIP3      2581            0.0000000000
     25092      2717  TIP3      H1             22.6215029274        1.6173051300       39.3927729765  TIP3      2581            0.0000000000
     25093      2717  TIP3      H2             23.0356305527        0.4761256119       40.2108824700  TIP3      2581            0.0000000000
     25094      2718  TIP3      OH2            18.3647794389        3.0940103450       40.4786980766  TIP3      2582            0.0000000000
     25095      2718  TIP3      H1             18.6641389505        2.3577699290       39.8920167075  TIP3      2582            0.0000000000
     25096      2718  TIP3      H2             18.8631989205        2.9126456243       41.2978110326  TIP3      2582            0.0000000000
     25097      2719  TIP3      OH2            19.5553350434       -4.4816858428       39.9268586315  TIP3      2583            0.0000000000
     25098      2719  TIP3      H1             19.2436349568       -4.6138994006       39.0059910369  TIP3      2583            0.0000000000
     25099      2719  TIP3      H2             20.4281061008       -4.0829617257       39.7562382220  TIP3      2583            0.0000000000
     25100      2720  TIP3      OH2            15.2394755165      -10.9726291584       40.5817392597  TIP3      2584            0.0000000000
     25101      2720  TIP3      H1             14.4598475643      -11.3563381007       40.9997423087  TIP3      2584            0.0000000000
     25102      2720  TIP3      H2             15.3640149625      -11.5152048915       39.7786657292  TIP3      2584            0.0000000000
     25103      2721  TIP3      OH2            11.2399522881      -10.5725182150       39.3510304892  TIP3      2585            0.0000000000
     25104      2721  TIP3      H1             10.8196434122      -10.6186739075       40.2259445088  TIP3      2585            0.0000000000
     25105      2721  TIP3      H2             10.7771421119       -9.8021918631       38.9422601226  TIP3      2585            0.0000000000
     25106      2722  TIP3      OH2             5.9467136466      -10.7178197326       41.9419155857  TIP3      2586            0.0000000000
     25107      2722  TIP3      H1              6.6653857428      -10.4593561305       41.3316790834  TIP3      2586            0.0000000000
     25108      2722  TIP3      H2              5.6157583172       -9.8357195793       42.1958635770  TIP3      2586            0.0000000000
     25109      2723  TIP3      OH2            10.1530649792       -7.7913123493       40.9157196167  TIP3      2587            0.0000000000
     25110      2723  TIP3      H1              9.4207154137       -8.0764129697       40.3426584357  TIP3      2587            0.0000000000
     25111      2723  TIP3      H2             10.8588218228       -7.6621291132       40.2593811784  TIP3      2587            0.0000000000
     25112      2724  TIP3      OH2            17.7548923702       -9.9547453036       40.3505242349  TIP3      2588            0.0000000000
     25113      2724  TIP3      H1             16.7884712429      -10.1230997139       40.4698095972  TIP3      2588            0.0000000000
     25114      2724  TIP3      H2             18.0130999912       -9.6291603453       41.2275612346  TIP3      2588            0.0000000000
     25115      2725  TIP3      OH2            14.7719055874       -1.6539135673       40.4985767472  TIP3      2589            0.0000000000
     25116      2725  TIP3      H1             14.3552737466       -0.7594650135       40.5799208707  TIP3      2589            0.0000000000
     25117      2725  TIP3      H2             15.1230548821       -1.7554713683       41.4038849642  TIP3      2589            0.0000000000
     25118      2726  TIP3      OH2             7.1466703846       -5.1647356985       40.0110614365  TIP3      2590            0.0000000000
     25119      2726  TIP3      H1              7.6790830527       -4.5856349648       40.6137919574  TIP3      2590            0.0000000000
     25120      2726  TIP3      H2              6.2568977131       -5.0888742623       40.4225950889  TIP3      2590            0.0000000000
     25121      2727  TIP3      OH2            18.8609240250       -1.1764870974       40.4268067197  TIP3      2591            0.0000000000
     25122      2727  TIP3      H1             18.6843311970       -0.8879018627       41.3362292804  TIP3      2591            0.0000000000
     25123      2727  TIP3      H2             18.1008334486       -1.7526114561       40.2669398793  TIP3      2591            0.0000000000
     25124      2728  TIP3      OH2            22.9042281598        3.1083588695       40.3094525464  TIP3      2592            0.0000000000
     25125      2728  TIP3      H1             23.7310957574        3.5723398568       40.5162884612  TIP3      2592            0.0000000000
     25126      2728  TIP3      H2             22.2492698587        3.6332656321       40.8160558243  TIP3      2592            0.0000000000
     25127      2729  TIP3      OH2            12.7186509086       -0.0644166666       38.7061534189  TIP3      2593            0.0000000000
     25128      2729  TIP3      H1             12.3527723206       -0.6076449229       37.9972455993  TIP3      2593            0.0000000000
     25129      2729  TIP3      H2             12.3327548490       -0.4746504495       39.5110560347  TIP3      2593            0.0000000000
     25130      2730  TIP3      OH2            11.6940317899       -0.8463989616       41.2689102808  TIP3      2594            0.0000000000
     25131      2730  TIP3      H1             11.1491780504       -1.3048661683       41.9575751066  TIP3      2594            0.0000000000
     25132      2730  TIP3      H2             11.5733195336        0.0796619225       41.5863403407  TIP3      2594            0.0000000000
     25133      2731  TIP3      OH2             8.3176027210       -3.6450695290       41.8717954306  TIP3      2595            0.0000000000
     25134      2731  TIP3      H1              7.7246310606       -4.1118357751       42.5058500979  TIP3      2595            0.0000000000
     25135      2731  TIP3      H2              8.0746150496       -2.7261508699       42.0367998631  TIP3      2595            0.0000000000
     25136      2732  TIP3      OH2            13.8766050519        0.9042603819       41.0898863156  TIP3      2596            0.0000000000
     25137      2732  TIP3      H1             12.9839681752        1.2820492661       41.1707900616  TIP3      2596            0.0000000000
     25138      2732  TIP3      H2             14.4130248177        1.5992117730       41.5034874726  TIP3      2596            0.0000000000
     25139      2733  TIP3      OH2            11.3099691829        1.5739641774       42.3331648275  TIP3      2597            0.0000000000
     25140      2733  TIP3      H1             11.3665738035        2.3375910487       41.7243815539  TIP3      2597            0.0000000000
     25141      2733  TIP3      H2             11.4670645166        2.0752299618       43.1486747202  TIP3      2597            0.0000000000
     25142      2734  TIP3      OH2            10.0751497962      -11.7227553822       41.8922611846  TIP3      2598            0.0000000000
     25143      2734  TIP3      H1             10.7139806286      -11.1162996421       42.3424814420  TIP3      2598            0.0000000000
     25144      2734  TIP3      H2             10.6763652766      -12.3379399456       41.4437280189  TIP3      2598            0.0000000000
     25145      2735  TIP3      OH2             8.7188395999       -1.0330134320       40.1433458243  TIP3      2599            0.0000000000
     25146      2735  TIP3      H1              9.2238432491       -0.7812739731       40.9341980428  TIP3      2599            0.0000000000
     25147      2735  TIP3      H2              9.3331912939       -1.6620641826       39.7269092723  TIP3      2599            0.0000000000
     25148      2736  TIP3      OH2             7.1085495527       -8.0957452820       40.0441323218  TIP3      2600            0.0000000000
     25149      2736  TIP3      H1              7.0876195604       -7.1956006679       40.4209465459  TIP3      2600            0.0000000000
     25150      2736  TIP3      H2              6.2250089038       -8.1958234432       39.6627984496  TIP3      2600            0.0000000000
     25151      2737  TIP3      OH2            14.9203394642        2.1769057262       38.7795291609  TIP3      2601            0.0000000000
     25152      2737  TIP3      H1             14.5090999569        1.3019071486       38.9607551634  TIP3      2601            0.0000000000
     25153      2737  TIP3      H2             15.7357086123        1.9509381735       38.2774722245  TIP3      2601            0.0000000000
     25154      2738  TIP3      OH2            19.4423303072        1.1718739781       38.8643813041  TIP3      2602            0.0000000000
     25155      2738  TIP3      H1             19.4935101410        0.3817648997       39.4426569969  TIP3      2602            0.0000000000
     25156      2738  TIP3      H2             20.2766588539        1.1151089789       38.3477053194  TIP3      2602            0.0000000000
     25157      2739  TIP3      OH2            10.2637316072       -3.2456169554       38.6988097645  TIP3      2603            0.0000000000
     25158      2739  TIP3      H1             10.4002340815       -3.8221968092       39.4735537483  TIP3      2603            0.0000000000
     25159      2739  TIP3      H2             11.1477062111       -3.2201875733       38.2911237624  TIP3      2603            0.0000000000
     25160      2740  TIP3      OH2            15.9260898267       -1.3733688361       38.0398103856  TIP3      2604            0.0000000000
     25161      2740  TIP3      H1             15.4788735026       -1.3758503944       38.9080029737  TIP3      2604            0.0000000000
     25162      2740  TIP3      H2             15.9878134433       -2.3378172865       37.8756753670  TIP3      2604            0.0000000000
     25163      2741  TIP3      OH2            11.6487217298       -4.7400956779       40.6370512411  TIP3      2605            0.0000000000
     25164      2741  TIP3      H1             10.9743925209       -4.7562278190       41.3396053208  TIP3      2605            0.0000000000
     25165      2741  TIP3      H2             11.6307952080       -5.6757141718       40.3417390587  TIP3      2605            0.0000000000
     25166      2742  TIP3      OH2            12.5477181317       -7.1213479667       39.4213275583  TIP3      2606            0.0000000000
     25167      2742  TIP3      H1             12.2043208169       -6.9512788680       38.5145711986  TIP3      2606            0.0000000000
     25168      2742  TIP3      H2             13.3443779642       -7.6364829854       39.2373613769  TIP3      2606            0.0000000000
     25169      2743  TIP3      OH2            22.0594261799       -4.2236686243       38.8388767389  TIP3      2607            0.0000000000
     25170      2743  TIP3      H1             21.9318480278       -4.6357246807       37.9529131411  TIP3      2607            0.0000000000
     25171      2743  TIP3      H2             21.9078887836       -3.2659826653       38.6206499579  TIP3      2607            0.0000000000
     25172      2744  TIP3      OH2            12.5141026520        3.7213542568       41.1974956147  TIP3      2608            0.0000000000
     25173      2744  TIP3      H1             13.4598259107        3.8780454840       40.9928583881  TIP3      2608            0.0000000000
     25174      2744  TIP3      H2             12.1172439411        4.4709010175       40.7224809386  TIP3      2608            0.0000000000
     25175      2745  TIP3      OH2             6.1278772424       -1.8354027349       40.4127058803  TIP3      2609            0.0000000000
     25176      2745  TIP3      H1              7.0139686157       -1.4551340956       40.2024887267  TIP3      2609            0.0000000000
     25177      2745  TIP3      H2              5.8691937283       -2.1950834148       39.5308307300  TIP3      2609            0.0000000000
     25178      2746  TIP3      OH2            23.3902360343       -5.0599944719       41.0651894334  TIP3      2610            0.0000000000
     25179      2746  TIP3      H1             22.8725122239       -5.5265406185       40.3802245898  TIP3      2610            0.0000000000
     25180      2746  TIP3      H2             23.2960228718       -4.1429654018       40.7505880311  TIP3      2610            0.0000000000
     25181      2747  TIP3      OH2            21.6229995336       -7.6508601623       39.9669210522  TIP3      2611            0.0000000000
     25182      2747  TIP3      H1             21.9795934205       -7.4195250871       39.0866664025  TIP3      2611            0.0000000000
     25183      2747  TIP3      H2             21.3427183176       -8.5780667130       39.8206110089  TIP3      2611            0.0000000000
     25184      2748  TIP3      OH2            21.0362902657      -10.2461831284       39.1556423107  TIP3      2612            0.0000000000
     25185      2748  TIP3      H1             21.6957401168      -10.8730258866       39.5226322914  TIP3      2612            0.0000000000
     25186      2748  TIP3      H2             20.2184883759      -10.6372050976       39.4979356831  TIP3      2612            0.0000000000
     25187      2749  TIP3      OH2            22.7283977419      -12.0140360879       40.5893808121  TIP3      2613            0.0000000000
     25188      2749  TIP3      H1             22.9956276607      -12.5442504747       39.7921148281  TIP3      2613            0.0000000000
     25189      2749  TIP3      H2             23.6102840625      -11.7828688021       40.9367519153  TIP3      2613            0.0000000000
     25190      2750  TIP3      OH2             6.6402227460      -13.8249048531       41.4155710069  TIP3      2614            0.0000000000
     25191      2750  TIP3      H1              7.0056146320      -13.5195731429       40.5744784809  TIP3      2614            0.0000000000
     25192      2750  TIP3      H2              6.3410738851      -12.9884155966       41.8015173491  TIP3      2614            0.0000000000
     25193      2751  TIP3      OH2             8.0248872515      -11.6320387841       40.1809834886  TIP3      2615            0.0000000000
     25194      2751  TIP3      H1              8.5219182783      -12.1726908354       39.5338433953  TIP3      2615            0.0000000000
     25195      2751  TIP3      H2              8.6274837592      -11.6276018371       40.9610821991  TIP3      2615            0.0000000000
     25196      2752  TIP3      OH2            15.3738915518        3.7242214726       41.0677642440  TIP3      2616            0.0000000000
     25197      2752  TIP3      H1             16.3395626581        3.7235529540       41.0350425510  TIP3      2616            0.0000000000
     25198      2752  TIP3      H2             15.1755158570        3.0975830772       40.3369979783  TIP3      2616            0.0000000000
     25199      2753  TIP3      OH2             8.0350151069        3.4782259175       39.9357174144  TIP3      2617            0.0000000000
     25200      2753  TIP3      H1              7.6387853651        3.1994768903       40.7807534372  TIP3      2617            0.0000000000
     25201      2753  TIP3      H2              8.7325955731        2.8058113548       39.8085680841  TIP3      2617            0.0000000000
     25202      2754  TIP3      OH2            30.0047233768      -10.7734465016       39.1887016635  TIP3      2618            0.0000000000
     25203      2754  TIP3      H1             29.6502944916      -10.6712022080       40.0844912214  TIP3      2618            0.0000000000
     25204      2754  TIP3      H2             29.3933616766      -10.2147568631       38.6717121967  TIP3      2618            0.0000000000
     25205      2755  TIP3      OH2            24.6046760693      -10.3452455871       41.7676064877  TIP3      2619            0.0000000000
     25206      2755  TIP3      H1             25.4136552356      -10.3272610828       41.2148307047  TIP3      2619            0.0000000000
     25207      2755  TIP3      H2             24.0889757892       -9.6364860684       41.3579494952  TIP3      2619            0.0000000000
     25208      2756  TIP3      OH2            29.4531875401       -7.8929098888       40.4635058697  TIP3      2620            0.0000000000
     25209      2756  TIP3      H1             28.9156638567       -8.2894204892       39.7548340159  TIP3      2620            0.0000000000
     25210      2756  TIP3      H2             29.8626891922       -7.1537297815       39.9896271438  TIP3      2620            0.0000000000
     25211      2757  TIP3      OH2            25.9555105151       -5.1897433982       40.1852170867  TIP3      2621            0.0000000000
     25212      2757  TIP3      H1             26.3637265817       -4.4543135266       40.6982728623  TIP3      2621            0.0000000000
     25213      2757  TIP3      H2             25.0388948096       -5.1656196986       40.5364390842  TIP3      2621            0.0000000000
     25214      2758  TIP3      OH2            31.2684658599       -0.2184044562       39.0167909283  TIP3      2622            0.0000000000
     25215      2758  TIP3      H1             31.1122236032       -0.8100613010       38.2610857855  TIP3      2622            0.0000000000
     25216      2758  TIP3      H2             30.5356435160       -0.4485519820       39.6364119686  TIP3      2622            0.0000000000
     25217      2759  TIP3      OH2            29.8211733148       -0.7049827110       41.1559634688  TIP3      2623            0.0000000000
     25218      2759  TIP3      H1             29.4516945263       -1.2421368401       41.8901116304  TIP3      2623            0.0000000000
     25219      2759  TIP3      H2             30.0492828374        0.1361567079       41.6243443877  TIP3      2623            0.0000000000
     25220      2760  TIP3      OH2            26.6995686414       -3.1403360615       41.7377516524  TIP3      2624            0.0000000000
     25221      2760  TIP3      H1             26.2931838488       -3.6770834615       42.4534570252  TIP3      2624            0.0000000000
     25222      2760  TIP3      H2             27.5696981435       -2.9476291992       42.1315973728  TIP3      2624            0.0000000000
     25223      2761  TIP3      OH2            30.2310803603        1.6819929242       42.2678600894  TIP3      2625            0.0000000000
     25224      2761  TIP3      H1             30.3702199326        2.3948635258       41.6131722700  TIP3      2625            0.0000000000
     25225      2761  TIP3      H2             30.6409365011        2.0846819009       43.0546530796  TIP3      2625            0.0000000000
     25226      2762  TIP3      OH2            28.9018454811      -11.5795797914       41.8589289135  TIP3      2626            0.0000000000
     25227      2762  TIP3      H1             29.4878835429      -10.9391347846       42.3260586378  TIP3      2626            0.0000000000
     25228      2762  TIP3      H2             29.5369298364      -12.2410867985       41.5418471597  TIP3      2626            0.0000000000
     25229      2763  TIP3      OH2            27.3192051695       -0.6689978789       39.9335665623  TIP3      2627            0.0000000000
     25230      2763  TIP3      H1             28.1450337632       -0.5901105455       40.4445508713  TIP3      2627            0.0000000000
     25231      2763  TIP3      H2             27.4569775564       -1.5301872161       39.4929875070  TIP3      2627            0.0000000000
     25232      2764  TIP3      OH2            26.1190566278       -8.1728435935       39.7354672325  TIP3      2628            0.0000000000
     25233      2764  TIP3      H1             26.3711723292       -7.4058685840       40.2855237313  TIP3      2628            0.0000000000
     25234      2764  TIP3      H2             25.1847863331       -8.0022604267       39.5546284879  TIP3      2628            0.0000000000
     25235      2765  TIP3      OH2            28.4998016877       -2.8861180585       38.7843906763  TIP3      2629            0.0000000000
     25236      2765  TIP3      H1             28.7775457983       -3.2362911197       39.6489134774  TIP3      2629            0.0000000000
     25237      2765  TIP3      H2             29.3572860587       -2.8501101105       38.3249960086  TIP3      2629            0.0000000000
     25238      2766  TIP3      OH2            30.3685298245       -4.2116386648       41.1551833229  TIP3      2630            0.0000000000
     25239      2766  TIP3      H1             30.5096299516       -4.9518567112       41.7761395745  TIP3      2630            0.0000000000
     25240      2766  TIP3      H2             30.7390111236       -4.6165952411       40.3394091397  TIP3      2630            0.0000000000
     25241      2767  TIP3      OH2            31.3850908069       -5.9644138305       39.2701900438  TIP3      2631            0.0000000000
     25242      2767  TIP3      H1             31.1051244410       -5.9405199721       38.3329904034  TIP3      2631            0.0000000000
     25243      2767  TIP3      H2             32.1342218787       -6.5722386791       39.1798085923  TIP3      2631            0.0000000000
     25244      2768  TIP3      OH2            31.3337068409        3.7660068270       40.4803509486  TIP3      2632            0.0000000000
     25245      2768  TIP3      H1             32.1419425648        3.8511927374       41.0004515715  TIP3      2632            0.0000000000
     25246      2768  TIP3      H2             31.5525072828        4.4027983333       39.7715509371  TIP3      2632            0.0000000000
     25247      2769  TIP3      OH2            24.6399978003       -1.3428875548       40.4881321992  TIP3      2633            0.0000000000
     25248      2769  TIP3      H1             25.5777562044       -1.0660066910       40.3700795356  TIP3      2633            0.0000000000
     25249      2769  TIP3      H2             24.4731321184       -1.7471889695       39.6209724282  TIP3      2633            0.0000000000
     25250      2770  TIP3      OH2            25.2482436022      -13.8313828463       41.4082104186  TIP3      2634            0.0000000000
     25251      2770  TIP3      H1             25.8339536949      -14.5317217327       41.7295398458  TIP3      2634            0.0000000000
     25252      2770  TIP3      H2             25.3924525197      -13.1087981893       42.0345936392  TIP3      2634            0.0000000000
     25253      2771  TIP3      OH2            26.8991455060      -11.4071750324       40.1382958342  TIP3      2635            0.0000000000
     25254      2771  TIP3      H1             27.3185156599      -12.1066581015       39.5955951427  TIP3      2635            0.0000000000
     25255      2771  TIP3      H2             27.5134308416      -11.3765527673       40.9020333076  TIP3      2635            0.0000000000
     25256      2772  TIP3      OH2            26.3410720819        3.2960295563       38.9412486667  TIP3      2636            0.0000000000
     25257      2772  TIP3      H1             26.0394796951        3.2919465421       39.8670375193  TIP3      2636            0.0000000000
     25258      2772  TIP3      H2             27.1285286945        2.6924331799       38.9287668180  TIP3      2636            0.0000000000
     25259      2773  TIP3      OH2           -22.5934694514       12.6986497375       39.6276495560  TIP3      2637            0.0000000000
     25260      2773  TIP3      H1            -21.8880591357       12.9222671394       40.2616268147  TIP3      2637            0.0000000000
     25261      2773  TIP3      H2            -22.3091107514       11.8076114325       39.3519260915  TIP3      2637            0.0000000000
     25262      2774  TIP3      OH2           -20.2432801422       13.3137044142       41.4520810366  TIP3      2638            0.0000000000
     25263      2774  TIP3      H1            -19.7031960313       13.0382400000       42.2197082983  TIP3      2638            0.0000000000
     25264      2774  TIP3      H2            -19.5517388360       13.5014267917       40.7772648534  TIP3      2638            0.0000000000
     25265      2775  TIP3      OH2           -16.3722297452        4.6211446564       41.6779528311  TIP3      2639            0.0000000000
     25266      2775  TIP3      H1            -17.1771042290        4.7913844134       42.1757822170  TIP3      2639            0.0000000000
     25267      2775  TIP3      H2            -16.0788153860        5.4928077304       41.3482968680  TIP3      2639            0.0000000000
     25268      2776  TIP3      OH2           -14.6565409606       19.0670127381       39.5005850030  TIP3      2640            0.0000000000
     25269      2776  TIP3      H1            -14.6449668161       20.0200151574       39.7328523789  TIP3      2640            0.0000000000
     25270      2776  TIP3      H2            -14.0263826140       18.6855130567       40.1417892796  TIP3      2640            0.0000000000
     25271      2777  TIP3      OH2           -19.6145935565       21.8501822422       40.4220647358  TIP3      2641            0.0000000000
     25272      2777  TIP3      H1            -19.2327026548       21.1174859197       39.8787316834  TIP3      2641            0.0000000000
     25273      2777  TIP3      H2            -19.2217475693       21.6415111977       41.2837926560  TIP3      2641            0.0000000000
     25274      2778  TIP3      OH2           -18.1816913844       14.0417878481       39.7742990809  TIP3      2642            0.0000000000
     25275      2778  TIP3      H1            -18.4759668991       13.9408410025       38.8380498782  TIP3      2642            0.0000000000
     25276      2778  TIP3      H2            -17.3020287270       14.4499428655       39.6357494231  TIP3      2642            0.0000000000
     25277      2779  TIP3      OH2           -22.6789637197        7.9517237045       40.3046601648  TIP3      2643            0.0000000000
     25278      2779  TIP3      H1            -23.3115309694        8.4177952655       40.8633444830  TIP3      2643            0.0000000000
     25279      2779  TIP3      H2            -23.2552989064        7.3724919477       39.7871625465  TIP3      2643            0.0000000000
     25280      2780  TIP3      OH2           -26.3972361616        8.1700744080       39.0685502370  TIP3      2644            0.0000000000
     25281      2780  TIP3      H1            -26.9032611428        7.9855940142       39.8872617254  TIP3      2644            0.0000000000
     25282      2780  TIP3      H2            -27.0198205597        8.7305617146       38.5527467623  TIP3      2644            0.0000000000
     25283      2781  TIP3      OH2           -31.5075472613        8.3562915476       42.1872778419  TIP3      2645            0.0000000000
     25284      2781  TIP3      H1            -31.1399417931        8.8499934741       41.4355234029  TIP3      2645            0.0000000000
     25285      2781  TIP3      H2            -32.4172697469        8.6708210742       42.2696919698  TIP3      2645            0.0000000000
     25286      2782  TIP3      OH2           -27.0064776672       11.1066009603       40.4173809715  TIP3      2646            0.0000000000
     25287      2782  TIP3      H1            -27.4124736356       10.6610359579       39.6490268038  TIP3      2646            0.0000000000
     25288      2782  TIP3      H2            -26.3792385847       11.6967494817       39.9445111518  TIP3      2646            0.0000000000
     25289      2783  TIP3      OH2           -20.2078019707        8.8959687813       40.0678349303  TIP3      2647            0.0000000000
     25290      2783  TIP3      H1            -21.1579368638        8.6812477188       40.2497321370  TIP3      2647            0.0000000000
     25291      2783  TIP3      H2            -19.8629246992        9.0563983159       40.9573918212  TIP3      2647            0.0000000000
     25292      2784  TIP3      OH2           -22.7171123899       17.2773326218       40.3758705743  TIP3      2648            0.0000000000
     25293      2784  TIP3      H1            -22.9570117414       18.1881915069       40.6650638356  TIP3      2648            0.0000000000
     25294      2784  TIP3      H2            -22.6164869761       16.8504661989       41.2312204743  TIP3      2648            0.0000000000
     25295      2785  TIP3      OH2           -30.6147448360       13.9234714128       40.1254433606  TIP3      2649            0.0000000000
     25296      2785  TIP3      H1            -30.0063276531       14.1026266776       40.8751291319  TIP3      2649            0.0000000000
     25297      2785  TIP3      H2            -31.2631045724       14.6316090812       40.3019928522  TIP3      2649            0.0000000000
     25298      2786  TIP3      OH2           -18.7248227601       17.7272147124       40.4855978225  TIP3      2650            0.0000000000
     25299      2786  TIP3      H1            -18.7987607405       18.0008909593       41.4120847267  TIP3      2650            0.0000000000
     25300      2786  TIP3      H2            -19.5808094609       17.2984717219       40.3290744606  TIP3      2650            0.0000000000
     25301      2787  TIP3      OH2           -14.6333790148       21.6688519328       40.1659678713  TIP3      2651            0.0000000000
     25302      2787  TIP3      H1            -13.8860933570       22.2580258296       40.3738305067  TIP3      2651            0.0000000000
     25303      2787  TIP3      H2            -15.3426554736       22.0346448622       40.7088743931  TIP3      2651            0.0000000000
     25304      2788  TIP3      OH2           -24.8747694954       19.0782865752       38.7541783046  TIP3      2652            0.0000000000
     25305      2788  TIP3      H1            -25.1135103300       18.3617658515       38.1442191384  TIP3      2652            0.0000000000
     25306      2788  TIP3      H2            -25.0811595705       18.6601317019       39.6179853100  TIP3      2652            0.0000000000
     25307      2789  TIP3      OH2           -25.8991051829       18.0965790351       41.2296761061  TIP3      2653            0.0000000000
     25308      2789  TIP3      H1            -26.4237536601       17.4799371140       41.7699684724  TIP3      2653            0.0000000000
     25309      2789  TIP3      H2            -25.9100146774       18.9474108002       41.7252112945  TIP3      2653            0.0000000000
     25310      2790  TIP3      OH2           -29.7632482078       15.0550943763       42.3208865929  TIP3      2654            0.0000000000
     25311      2790  TIP3      H1            -30.3547017012       15.8268852410       42.3962121031  TIP3      2654            0.0000000000
     25312      2790  TIP3      H2            -28.8995667706       15.4967782244       42.2053639740  TIP3      2654            0.0000000000
     25313      2791  TIP3      OH2           -23.4512887329       19.7422055676       41.2219804933  TIP3      2655            0.0000000000
     25314      2791  TIP3      H1            -24.3244320329       20.0813285649       41.5049813845  TIP3      2655            0.0000000000
     25315      2791  TIP3      H2            -22.8739307655       20.4697167301       41.5046396657  TIP3      2655            0.0000000000
     25316      2792  TIP3      OH2           -25.8252027382       20.5053426281       42.3819977522  TIP3      2656            0.0000000000
     25317      2792  TIP3      H1            -26.0816093178       21.1293677763       41.6668719518  TIP3      2656            0.0000000000
     25318      2792  TIP3      H2            -25.8494848904       21.1537502474       43.1112335487  TIP3      2656            0.0000000000
     25319      2793  TIP3      OH2           -27.4377303359        7.4021429014       41.4664857020  TIP3      2657            0.0000000000
     25320      2793  TIP3      H1            -27.2737907139        8.2631331402       41.8924084387  TIP3      2657            0.0000000000
     25321      2793  TIP3      H2            -26.6853735274        6.8867719804       41.8026315754  TIP3      2657            0.0000000000
     25322      2794  TIP3      OH2           -29.0138221651       17.7559928584       40.1621494000  TIP3      2658            0.0000000000
     25323      2794  TIP3      H1            -28.4195346941       18.1733166040       40.8026973895  TIP3      2658            0.0000000000
     25324      2794  TIP3      H2            -28.3696811035       17.1991001741       39.6707601131  TIP3      2658            0.0000000000
     25325      2795  TIP3      OH2           -31.0103661822       10.8785496699       39.5929064184  TIP3      2659            0.0000000000
     25326      2795  TIP3      H1            -30.7331948590       11.6577225662       40.1042063038  TIP3      2659            0.0000000000
     25327      2795  TIP3      H2            -31.9536093650       10.8189351686       39.7699034734  TIP3      2659            0.0000000000
     25328      2796  TIP3      OH2           -22.6378501533       20.9393357848       38.7707747431  TIP3      2660            0.0000000000
     25329      2796  TIP3      H1            -23.2013162217       20.1816322018       39.0452158237  TIP3      2660            0.0000000000
     25330      2796  TIP3      H2            -21.8919046347       20.4963328056       38.3184750070  TIP3      2660            0.0000000000
     25331      2797  TIP3      OH2           -18.3939150988       19.9681533712       38.8571104497  TIP3      2661            0.0000000000
     25332      2797  TIP3      H1            -18.2574523801       19.2092976386       39.4619752274  TIP3      2661            0.0000000000
     25333      2797  TIP3      H2            -17.5797761906       19.9644470724       38.3005655885  TIP3      2661            0.0000000000
     25334      2798  TIP3      OH2           -27.3805079004       16.0634054375       38.6560608794  TIP3      2662            0.0000000000
     25335      2798  TIP3      H1            -27.0413651257       15.6320952157       39.4684355178  TIP3      2662            0.0000000000
     25336      2798  TIP3      H2            -26.6226407554       15.8757797318       38.0630645512  TIP3      2662            0.0000000000
     25337      2799  TIP3      OH2           -22.0497182755       17.4213080820       37.7968939618  TIP3      2663            0.0000000000
     25338      2799  TIP3      H1            -22.4642180174       17.3800969474       38.6879464700  TIP3      2663            0.0000000000
     25339      2799  TIP3      H2            -21.8068661479       16.4648796893       37.7583020152  TIP3      2663            0.0000000000
     25340      2800  TIP3      OH2           -26.3795485322       14.5382647888       40.6364482830  TIP3      2664            0.0000000000
     25341      2800  TIP3      H1            -26.5834773423       13.6192554471       40.8985325543  TIP3      2664            0.0000000000
     25342      2800  TIP3      H2            -25.5598094290       14.3918419470       40.1284470506  TIP3      2664            0.0000000000
     25343      2801  TIP3      OH2           -25.2917328370       12.5767217936       38.9575247594  TIP3      2665            0.0000000000
     25344      2801  TIP3      H1            -25.4574978833       12.8651364009       38.0393667679  TIP3      2665            0.0000000000
     25345      2801  TIP3      H2            -24.3097996672       12.6088949736       39.0215867845  TIP3      2665            0.0000000000
     25346      2802  TIP3      OH2           -15.7126438420       14.6223064726       38.7996455706  TIP3      2666            0.0000000000
     25347      2802  TIP3      H1            -15.8884194825       14.2472502150       37.9105892838  TIP3      2666            0.0000000000
     25348      2802  TIP3      H2            -15.8062779554       15.5977075834       38.6331833353  TIP3      2666            0.0000000000
     25349      2803  TIP3      OH2           -25.0518072808       22.7462862955       41.0457093022  TIP3      2667            0.0000000000
     25350      2803  TIP3      H1            -24.0824532922       22.7167052462       40.8815458482  TIP3      2667            0.0000000000
     25351      2803  TIP3      H2            -25.2725733554       23.5178672770       40.4997332789  TIP3      2667            0.0000000000
     25352      2804  TIP3      OH2           -31.7389275696       17.2270686257       40.4101277518  TIP3      2668            0.0000000000
     25353      2804  TIP3      H1            -30.8343524313       17.5609959420       40.2688937565  TIP3      2668            0.0000000000
     25354      2804  TIP3      H2            -32.0023714670       17.0232796836       39.5023136313  TIP3      2668            0.0000000000
     25355      2805  TIP3      OH2           -14.2584036136       13.7675563604       41.0909062451  TIP3      2669            0.0000000000
     25356      2805  TIP3      H1            -14.7536405522       13.7352911436       40.2479861361  TIP3      2669            0.0000000000
     25357      2805  TIP3      H2            -14.2373964388       14.7237473420       41.2495423527  TIP3      2669            0.0000000000
     25358      2806  TIP3      OH2           -16.1097686520       10.6709330221       39.7284118266  TIP3      2670            0.0000000000
     25359      2806  TIP3      H1            -15.8695960525       11.0544033724       38.8697580942  TIP3      2670            0.0000000000
     25360      2806  TIP3      H2            -16.7144464837        9.9508490025       39.4919422866  TIP3      2670            0.0000000000
     25361      2807  TIP3      OH2           -16.7897766300        7.7442410477       38.7076913527  TIP3      2671            0.0000000000
     25362      2807  TIP3      H1            -16.1272462858        7.3966619954       39.3497380584  TIP3      2671            0.0000000000
     25363      2807  TIP3      H2            -17.5506048833        7.8891204674       39.2885145330  TIP3      2671            0.0000000000
     25364      2808  TIP3      OH2           -14.9490135662        6.4817170187       40.4150854085  TIP3      2672            0.0000000000
     25365      2808  TIP3      H1            -14.5118435689        5.9388320507       39.7134869885  TIP3      2672            0.0000000000
     25366      2808  TIP3      H2            -14.1688745504        6.7877840564       40.9165945786  TIP3      2672            0.0000000000
     25367      2809  TIP3      OH2           -31.3617881818        5.2779853500       41.3540340450  TIP3      2673            0.0000000000
     25368      2809  TIP3      H1            -30.7988137229        5.8419564795       40.7982942549  TIP3      2673            0.0000000000
     25369      2809  TIP3      H2            -32.0530306545        5.9212649769       41.5686325660  TIP3      2673            0.0000000000
     25370      2810  TIP3      OH2           -29.7880996391        7.0836666698       40.0409673987  TIP3      2674            0.0000000000
     25371      2810  TIP3      H1            -29.1687515700        6.5707561552       39.4848765258  TIP3      2674            0.0000000000
     25372      2810  TIP3      H2            -29.2069879332        7.2840009434       40.7934173226  TIP3      2674            0.0000000000
     25373      2811  TIP3      OH2           -22.2477943073       22.5669752859       40.8906350860  TIP3      2675            0.0000000000
     25374      2811  TIP3      H1            -21.2747136605       22.6032107924       40.8969839107  TIP3      2675            0.0000000000
     25375      2811  TIP3      H2            -22.3827586070       21.9118725917       40.1693799268  TIP3      2675            0.0000000000
     25376      2812  TIP3      OH2           -30.0554343060       22.1744523901       39.7848060915  TIP3      2676            0.0000000000
     25377      2812  TIP3      H1            -30.6255769987       22.1474753726       40.5686054348  TIP3      2676            0.0000000000
     25378      2812  TIP3      H2            -29.4407098874       21.4387996815       39.9519365281  TIP3      2676            0.0000000000
     25379      2813  TIP3      OH2            -3.6096345148       12.5196656695       39.6148823372  TIP3      2677            0.0000000000
     25380      2813  TIP3      H1             -3.1386580748       12.8094731859       40.4212287617  TIP3      2677            0.0000000000
     25381      2813  TIP3      H2             -3.0263615589       11.7644070698       39.3988079335  TIP3      2677            0.0000000000
     25382      2814  TIP3      OH2            -1.4393532561       13.2069539644       41.3062204426  TIP3      2678            0.0000000000
     25383      2814  TIP3      H1             -1.2884696241       13.5912386878       42.1942425909  TIP3      2678            0.0000000000
     25384      2814  TIP3      H2             -0.7626655324       13.7093902561       40.7910304684  TIP3      2678            0.0000000000
     25385      2815  TIP3      OH2             2.3462647251        5.1158924241       42.5297119397  TIP3      2679            0.0000000000
     25386      2815  TIP3      H1              1.7215092024        4.8314476975       41.8458066906  TIP3      2679            0.0000000000
     25387      2815  TIP3      H2              3.1242179264        5.3690453992       41.9849223326  TIP3      2679            0.0000000000
     25388      2816  TIP3      OH2             3.9362670751       19.3968609163       39.4274141733  TIP3      2680            0.0000000000
     25389      2816  TIP3      H1              3.9759189726       20.3434440177       39.6862961760  TIP3      2680            0.0000000000
     25390      2816  TIP3      H2              4.4272240926       19.0101175786       40.1785868767  TIP3      2680            0.0000000000
     25391      2817  TIP3      OH2            -0.6293308092       21.6236750670       40.5785672204  TIP3      2681            0.0000000000
     25392      2817  TIP3      H1             -0.3463063101       20.9988572233       39.8743377080  TIP3      2681            0.0000000000
     25393      2817  TIP3      H2             -0.0145608966       21.3832721428       41.2946971361  TIP3      2681            0.0000000000
     25394      2818  TIP3      OH2             0.3901738189       14.7177238349       40.0826541611  TIP3      2682            0.0000000000
     25395      2818  TIP3      H1              0.4072860569       14.1357266305       39.2986995546  TIP3      2682            0.0000000000
     25396      2818  TIP3      H2              1.2160442475       15.2059173955       39.9225996754  TIP3      2682            0.0000000000
     25397      2819  TIP3      OH2            -3.9570097301        7.8763839698       40.1692795343  TIP3      2683            0.0000000000
     25398      2819  TIP3      H1             -4.4053940310        8.1015190082       40.9926499252  TIP3      2683            0.0000000000
     25399      2819  TIP3      H2             -4.5337041790        7.1970206065       39.7921661902  TIP3      2683            0.0000000000
     25400      2820  TIP3      OH2            -7.7256443252        8.3261777551       39.2462219554  TIP3      2684            0.0000000000
     25401      2820  TIP3      H1             -8.1572576391        8.4822123337       40.0996845350  TIP3      2684            0.0000000000
     25402      2820  TIP3      H2             -8.1373141543        9.0481244066       38.7113027989  TIP3      2684            0.0000000000
     25403      2821  TIP3      OH2           -13.2601797648        8.4018247341       41.5697344736  TIP3      2685            0.0000000000
     25404      2821  TIP3      H1            -12.4256020438        8.6492116429       41.1213200398  TIP3      2685            0.0000000000
     25405      2821  TIP3      H2            -13.8356117033        9.1358097064       41.3032758493  TIP3      2685            0.0000000000
     25406      2822  TIP3      OH2            -8.1722628007       10.9254740239       40.4685983251  TIP3      2686            0.0000000000
     25407      2822  TIP3      H1             -8.8596955691       10.5980887297       39.8679368976  TIP3      2686            0.0000000000
     25408      2822  TIP3      H2             -7.6244899638       11.4464915666       39.8539610124  TIP3      2686            0.0000000000
     25409      2823  TIP3      OH2            -1.8041981145        9.2276627352       41.1634427779  TIP3      2687            0.0000000000
     25410      2823  TIP3      H1             -2.5240135359        8.7851754786       40.6697717399  TIP3      2687            0.0000000000
     25411      2823  TIP3      H2             -1.5559496795        9.9257392185       40.5383201432  TIP3      2687            0.0000000000
     25412      2824  TIP3      OH2            -4.0296653906       16.9939995947       40.2569248881  TIP3      2688            0.0000000000
     25413      2824  TIP3      H1             -4.0668212711       17.9106319600       40.6154487573  TIP3      2688            0.0000000000
     25414      2824  TIP3      H2             -4.1628524868       16.5046038951       41.0769203025  TIP3      2688            0.0000000000
     25415      2825  TIP3      OH2           -11.6104122161       13.5962303124       40.1780545094  TIP3      2689            0.0000000000
     25416      2825  TIP3      H1            -11.0722775484       14.1906122687       40.7571592014  TIP3      2689            0.0000000000
     25417      2825  TIP3      H2            -12.5071246241       13.7154621691       40.5583143205  TIP3      2689            0.0000000000
     25418      2826  TIP3      OH2             0.0209922193       17.6233766240       40.5273487943  TIP3      2690            0.0000000000
     25419      2826  TIP3      H1             -0.1234915462       17.6620674136       41.4852358873  TIP3      2690            0.0000000000
     25420      2826  TIP3      H2             -0.6999227585       17.0376613475       40.2571655068  TIP3      2690            0.0000000000
     25421      2827  TIP3      OH2             4.1598544531       21.8491642999       40.3252806947  TIP3      2691            0.0000000000
     25422      2827  TIP3      H1              4.9829056324       22.3361499077       40.4642759057  TIP3      2691            0.0000000000
     25423      2827  TIP3      H2              3.5187605852       22.4155743207       40.8057249583  TIP3      2691            0.0000000000
     25424      2828  TIP3      OH2            -6.0751484108       18.9640908952       38.7354403027  TIP3      2692            0.0000000000
     25425      2828  TIP3      H1             -6.1958174187       18.2246495681       38.1206120362  TIP3      2692            0.0000000000
     25426      2828  TIP3      H2             -6.4601116777       18.5619941113       39.5523100795  TIP3      2692            0.0000000000
     25427      2829  TIP3      OH2            -7.1136953713       17.9390350752       41.0250277120  TIP3      2693            0.0000000000
     25428      2829  TIP3      H1             -7.5636347621       17.3381927345       41.6480489646  TIP3      2693            0.0000000000
     25429      2829  TIP3      H2             -7.1013495975       18.7685206834       41.5537787007  TIP3      2693            0.0000000000
     25430      2830  TIP3      OH2           -10.6428524798       15.3012795234       41.8920756685  TIP3      2694            0.0000000000
     25431      2830  TIP3      H1            -11.2301078380       14.9259030276       42.5792260283  TIP3      2694            0.0000000000
     25432      2830  TIP3      H2             -9.8990187577       15.6372127631       42.4077332659  TIP3      2694            0.0000000000
     25433      2831  TIP3      OH2            -4.4108596432       19.3961378988       41.4063995439  TIP3      2695            0.0000000000
     25434      2831  TIP3      H1             -5.3637931907       19.5889647351       41.4725511751  TIP3      2695            0.0000000000
     25435      2831  TIP3      H2             -4.0580442108       20.2834119218       41.5687297082  TIP3      2695            0.0000000000
     25436      2832  TIP3      OH2            -6.8820240377       20.3258160697       42.1161333440  TIP3      2696            0.0000000000
     25437      2832  TIP3      H1             -6.9222172623       20.9506339868       41.3534725524  TIP3      2696            0.0000000000
     25438      2832  TIP3      H2             -6.9622655511       20.9725618183       42.8393485268  TIP3      2696            0.0000000000
     25439      2833  TIP3      OH2            -8.9284922595        7.1871642146       41.6243076859  TIP3      2697            0.0000000000
     25440      2833  TIP3      H1             -8.2953779874        7.7990239719       42.0692350963  TIP3      2697            0.0000000000
     25441      2833  TIP3      H2             -8.3322623290        6.6331618047       41.0938699980  TIP3      2697            0.0000000000
     25442      2834  TIP3      OH2           -10.0731569801       17.9537101142       40.1062895127  TIP3      2698            0.0000000000
     25443      2834  TIP3      H1             -9.4740641315       18.0746012100       40.8531266754  TIP3      2698            0.0000000000
     25444      2834  TIP3      H2             -9.6351863756       17.1828646418       39.6875609737  TIP3      2698            0.0000000000
     25445      2835  TIP3      OH2           -11.8211142607       10.6407836881       39.8183498635  TIP3      2699            0.0000000000
     25446      2835  TIP3      H1            -11.6993888161       11.5648843445       40.1064997333  TIP3      2699            0.0000000000
     25447      2835  TIP3      H2            -12.7440226319       10.5949797509       39.5475312303  TIP3      2699            0.0000000000
     25448      2836  TIP3      OH2            -3.8340775558       20.9070807083       38.8994397474  TIP3      2700            0.0000000000
     25449      2836  TIP3      H1             -4.3854639238       20.0968045821       38.9857921200  TIP3      2700            0.0000000000
     25450      2836  TIP3      H2             -3.1182484265       20.5904047949       38.3020126609  TIP3      2700            0.0000000000
     25451      2837  TIP3      OH2             0.7017065341       20.1638381884       38.7572691846  TIP3      2701            0.0000000000
     25452      2837  TIP3      H1              0.8992212821       19.6277598557       39.5464486609  TIP3      2701            0.0000000000
     25453      2837  TIP3      H2              1.4902904798       19.9797481264       38.1954219815  TIP3      2701            0.0000000000
     25454      2838  TIP3      OH2            -8.3987630675       16.0838917254       38.8511665975  TIP3      2702            0.0000000000
     25455      2838  TIP3      H1             -7.9616025114       15.7973562315       39.6733792046  TIP3      2702            0.0000000000
     25456      2838  TIP3      H2             -7.6412752119       15.9734793603       38.2320019796  TIP3      2702            0.0000000000
     25457      2839  TIP3      OH2            -3.3418311745       17.4208360872       37.6844550756  TIP3      2703            0.0000000000
     25458      2839  TIP3      H1             -3.8640434295       17.3634271509       38.5138959616  TIP3      2703            0.0000000000
     25459      2839  TIP3      H2             -3.0709990237       16.4827422531       37.6442669835  TIP3      2703            0.0000000000
     25460      2840  TIP3      OH2            -7.3108088565       14.1703136776       40.8222672337  TIP3      2704            0.0000000000
     25461      2840  TIP3      H1             -7.6108952804       13.5686546329       41.5232519006  TIP3      2704            0.0000000000
     25462      2840  TIP3      H2             -6.9415921074       13.5493645484       40.1550896771  TIP3      2704            0.0000000000
     25463      2841  TIP3      OH2            -6.2726092435       12.3537715816       39.0004259503  TIP3      2705            0.0000000000
     25464      2841  TIP3      H1             -6.3049663613       12.6700155162       38.0735031810  TIP3      2705            0.0000000000
     25465      2841  TIP3      H2             -5.3038899261       12.3635601274       39.1471776513  TIP3      2705            0.0000000000
     25466      2842  TIP3      OH2             3.1023954694       14.6985845934       38.8703350561  TIP3      2706            0.0000000000
     25467      2842  TIP3      H1              2.8506521128       14.3965243181       37.9642607285  TIP3      2706            0.0000000000
     25468      2842  TIP3      H2              3.0211336962       15.6810557975       38.7891957798  TIP3      2706            0.0000000000
     25469      2843  TIP3      OH2            -6.1856983462       22.6818871155       41.1600870212  TIP3      2707            0.0000000000
     25470      2843  TIP3      H1             -5.2176858351       22.6738572726       40.9833901253  TIP3      2707            0.0000000000
     25471      2843  TIP3      H2             -6.4365129696       23.4805878625       40.6555394039  TIP3      2707            0.0000000000
     25472      2844  TIP3      OH2           -13.0047251395       17.1375348360       40.3252696304  TIP3      2708            0.0000000000
     25473      2844  TIP3      H1            -12.0538447190       17.3400552777       40.2159693421  TIP3      2708            0.0000000000
     25474      2844  TIP3      H2            -13.1371330444       16.5854568792       39.5246571990  TIP3      2708            0.0000000000
     25475      2845  TIP3      OH2             4.7836544908       13.6638236621       40.9811721175  TIP3      2709            0.0000000000
     25476      2845  TIP3      H1              4.0854806416       13.6483637413       40.2994486324  TIP3      2709            0.0000000000
     25477      2845  TIP3      H2              4.8083502647       14.5997887624       41.2244238720  TIP3      2709            0.0000000000
     25478      2846  TIP3      OH2             2.2528290097       11.4055727004       40.2425095568  TIP3      2710            0.0000000000
     25479      2846  TIP3      H1              2.6186123261       11.5990687458       39.3672515869  TIP3      2710            0.0000000000
     25480      2846  TIP3      H2              2.0680153054       10.4460859057       40.1535858301  TIP3      2710            0.0000000000
     25481      2847  TIP3      OH2             1.7298323387        8.8607388233       39.0449794300  TIP3      2711            0.0000000000
     25482      2847  TIP3      H1              2.1966444821        8.0429153088       39.2861200747  TIP3      2711            0.0000000000
     25483      2847  TIP3      H2              1.0622267660        8.4966285097       38.4401395653  TIP3      2711            0.0000000000
     25484      2848  TIP3      OH2             4.0926654440        6.6143341676       40.9340678527  TIP3      2712            0.0000000000
     25485      2848  TIP3      H1              3.3098604185        6.4642059561       40.3536951744  TIP3      2712            0.0000000000
     25486      2848  TIP3      H2              4.7793951133        6.6493420742       40.2271211660  TIP3      2712            0.0000000000
     25487      2849  TIP3      OH2           -12.3725004630        4.8501074700       40.9702405742  TIP3      2713            0.0000000000
     25488      2849  TIP3      H1            -11.9441630646        5.5787434934       40.4839854060  TIP3      2713            0.0000000000
     25489      2849  TIP3      H2            -12.4245848593        5.2054722460       41.8705795709  TIP3      2713            0.0000000000
     25490      2850  TIP3      OH2           -11.0015329061        7.1658652105       40.0362985990  TIP3      2714            0.0000000000
     25491      2850  TIP3      H1            -10.4591860412        6.5978425816       39.4552604840  TIP3      2714            0.0000000000
     25492      2850  TIP3      H2            -10.3875772190        7.3006408698       40.7994793967  TIP3      2714            0.0000000000
     25493      2851  TIP3      OH2            -3.4243326699       22.5069100475       41.0539437762  TIP3      2715            0.0000000000
     25494      2851  TIP3      H1             -2.4655795408       22.5324713234       41.2205208865  TIP3      2715            0.0000000000
     25495      2851  TIP3      H2             -3.4805440485       21.8903584085       40.2842312090  TIP3      2715            0.0000000000
     25496      2852  TIP3      OH2           -11.4227225925       21.7342973574       39.1652576808  TIP3      2716            0.0000000000
     25497      2852  TIP3      H1            -11.6525181210       21.9786845841       40.0814762069  TIP3      2716            0.0000000000
     25498      2852  TIP3      H2            -10.6614730018       21.1405278602       39.2706806110  TIP3      2716            0.0000000000
     25499      2853  TIP3      OH2            15.2560346970       12.6908788832       39.7359934384  TIP3      2717            0.0000000000
     25500      2853  TIP3      H1             15.9255103087       12.9692384574       40.3897126964  TIP3      2717            0.0000000000
     25501      2853  TIP3      H2             15.3217648765       11.7282389710       39.8190598257  TIP3      2717            0.0000000000
     25502      2854  TIP3      OH2            17.6663620940       13.0005108800       41.5008936903  TIP3      2718            0.0000000000
     25503      2854  TIP3      H1             18.1006040010       13.0591607844       42.3843831226  TIP3      2718            0.0000000000
     25504      2854  TIP3      H2             18.3933668730       13.2995097975       40.9034606716  TIP3      2718            0.0000000000
     25505      2855  TIP3      OH2            21.2187682038        4.9428210578       41.6670151035  TIP3      2719            0.0000000000
     25506      2855  TIP3      H1             20.4529770271        5.4085849193       42.0128431052  TIP3      2719            0.0000000000
     25507      2855  TIP3      H2             21.7973241713        5.6621443710       41.3324226389  TIP3      2719            0.0000000000
     25508      2856  TIP3      OH2            22.6177375214       19.3922254850       39.3996251694  TIP3      2720            0.0000000000
     25509      2856  TIP3      H1             22.6488309704       20.3490660812       39.5977674259  TIP3      2720            0.0000000000
     25510      2856  TIP3      H2             23.0997000334       19.0544377036       40.1739422689  TIP3      2720            0.0000000000
     25511      2857  TIP3      OH2            18.3573185082       21.5216261082       40.6733269453  TIP3      2721            0.0000000000
     25512      2857  TIP3      H1             18.6591304682       20.9130907265       39.9577082952  TIP3      2721            0.0000000000
     25513      2857  TIP3      H2             18.7944937359       21.1010518271       41.4390183874  TIP3      2721            0.0000000000
     25514      2858  TIP3      OH2            19.6005938837       14.2643275740       40.0652942090  TIP3      2722            0.0000000000
     25515      2858  TIP3      H1             19.2473716842       14.1337806322       39.1580713755  TIP3      2722            0.0000000000
     25516      2858  TIP3      H2             20.4782934846       14.6359178124       39.8579967082  TIP3      2722            0.0000000000
     25517      2859  TIP3      OH2            14.8217965825        7.9277403807       40.3492223396  TIP3      2723            0.0000000000
     25518      2859  TIP3      H1             14.1791761499        7.9835829003       41.0645656239  TIP3      2723            0.0000000000
     25519      2859  TIP3      H2             14.2795269752        7.5955712847       39.6233332719  TIP3      2723            0.0000000000
     25520      2860  TIP3      OH2            11.3735801082        8.5016149292       39.1888778906  TIP3      2724            0.0000000000
     25521      2860  TIP3      H1             10.8001954286        8.2292278469       39.9393671221  TIP3      2724            0.0000000000
     25522      2860  TIP3      H2             10.7886213949        9.1292924418       38.6925587402  TIP3      2724            0.0000000000
     25523      2861  TIP3      OH2             6.1846325876        8.9220966932       41.9584992216  TIP3      2725            0.0000000000
     25524      2861  TIP3      H1              6.8585709498        9.2218712268       41.3212330442  TIP3      2725            0.0000000000
     25525      2861  TIP3      H2              5.3898956516        8.8987659346       41.4156975505  TIP3      2725            0.0000000000
     25526      2862  TIP3      OH2            10.5236949044       11.0337205803       40.6657656544  TIP3      2726            0.0000000000
     25527      2862  TIP3      H1              9.8198637588       10.6940618518       40.0866257435  TIP3      2726            0.0000000000
     25528      2862  TIP3      H2             11.0610993426       11.5587633765       40.0453484037  TIP3      2726            0.0000000000
     25529      2863  TIP3      OH2            17.2765398582        9.0714310335       40.2686099970  TIP3      2727            0.0000000000
     25530      2863  TIP3      H1             16.3845294256        8.6844174111       40.4040681943  TIP3      2727            0.0000000000
     25531      2863  TIP3      H2             17.7357461425        8.9032610827       41.1061732524  TIP3      2727            0.0000000000
     25532      2864  TIP3      OH2            14.8724634147       17.1691138149       40.4538247304  TIP3      2728            0.0000000000
     25533      2864  TIP3      H1             14.7637464117       18.0767802221       40.8220701440  TIP3      2728            0.0000000000
     25534      2864  TIP3      H2             14.7767686033       16.6415048561       41.2583611342  TIP3      2728            0.0000000000
     25535      2865  TIP3      OH2             7.5972214330       13.6259551133       40.0903087915  TIP3      2729            0.0000000000
     25536      2865  TIP3      H1              7.9485414854       14.3198478315       40.6944756707  TIP3      2729            0.0000000000
     25537      2865  TIP3      H2              6.6651038748       13.5829836005       40.3857527967  TIP3      2729            0.0000000000
     25538      2866  TIP3      OH2            19.0047065856       17.6568465358       40.3509538970  TIP3      2730            0.0000000000
     25539      2866  TIP3      H1             18.8855721775       18.0595471657       41.2255605328  TIP3      2730            0.0000000000
     25540      2866  TIP3      H2             18.2091654505       17.1059039325       40.2668646158  TIP3      2730            0.0000000000
     25541      2867  TIP3      OH2            22.9187048961       21.8630751287       40.6935070410  TIP3      2731            0.0000000000
     25542      2867  TIP3      H1             23.7537110935       22.3542900978       40.7725527036  TIP3      2731            0.0000000000
     25543      2867  TIP3      H2             22.3801064567       22.2668036754       41.3908897055  TIP3      2731            0.0000000000
     25544      2868  TIP3      OH2            12.8999186882       19.0181632353       38.9159434917  TIP3      2732            0.0000000000
     25545      2868  TIP3      H1             12.6839811688       18.3417672654       38.2564077799  TIP3      2732            0.0000000000
     25546      2868  TIP3      H2             12.4603333752       18.6234488249       39.7025393939  TIP3      2732            0.0000000000
     25547      2869  TIP3      OH2            11.6512770633       18.0055489746       41.3092830573  TIP3      2733            0.0000000000
     25548      2869  TIP3      H1             11.0852937439       17.4993329325       41.9290943069  TIP3      2733            0.0000000000
     25549      2869  TIP3      H2             11.6979159954       18.8862471343       41.7423449305  TIP3      2733            0.0000000000
     25550      2870  TIP3      OH2             8.0672885140       15.6273190025       41.7721688263  TIP3      2734            0.0000000000
     25551      2870  TIP3      H1              7.5789405155       15.1409317639       42.4684121506  TIP3      2734            0.0000000000
     25552      2870  TIP3      H2              8.9153903036       15.7953222396       42.2327614008  TIP3      2734            0.0000000000
     25553      2871  TIP3      OH2            14.2982493320       19.6344836431       41.5351859239  TIP3      2735            0.0000000000
     25554      2871  TIP3      H1             13.3980775056       19.8771053357       41.8497040947  TIP3      2735            0.0000000000
     25555      2871  TIP3      H2             14.6883441709       20.5256399317       41.4696862078  TIP3      2735            0.0000000000
     25556      2872  TIP3      OH2            11.8753282457       20.5250205124       42.2727666956  TIP3      2736            0.0000000000
     25557      2872  TIP3      H1             11.8975173312       21.1805161826       41.5245077096  TIP3      2736            0.0000000000
     25558      2872  TIP3      H2             11.5043783092       21.1021218370       42.9638168468  TIP3      2736            0.0000000000
     25559      2873  TIP3      OH2            10.3118367383        7.3492165009       41.4200152392  TIP3      2737            0.0000000000
     25560      2873  TIP3      H1             10.8754190485        7.9135574144       41.9938993163  TIP3      2737            0.0000000000
     25561      2873  TIP3      H2             10.9563120095        6.7291456103       41.0482093391  TIP3      2737            0.0000000000
     25562      2874  TIP3      OH2             8.6028942654       18.1968704964       40.4089415145  TIP3      2738            0.0000000000
     25563      2874  TIP3      H1              9.1547301949       18.2265172949       41.1980283942  TIP3      2738            0.0000000000
     25564      2874  TIP3      H2              9.0312997318       17.4660172557       39.9359871829  TIP3      2738            0.0000000000
     25565      2875  TIP3      OH2             7.3400901181       10.8411485919       39.7688905408  TIP3      2739            0.0000000000
     25566      2875  TIP3      H1              7.6406780011       11.7339936632       40.0412384330  TIP3      2739            0.0000000000
     25567      2875  TIP3      H2              6.3753939166       10.9379501523       39.7886706351  TIP3      2739            0.0000000000
     25568      2876  TIP3      OH2            15.0452239967       20.9720458146       39.0028459077  TIP3      2740            0.0000000000
     25569      2876  TIP3      H1             14.4270248556       20.2165338055       39.1619626601  TIP3      2740            0.0000000000
     25570      2876  TIP3      H2             15.7871289573       20.5147163701       38.5563276352  TIP3      2740            0.0000000000
     25571      2877  TIP3      OH2            19.3618852137       19.8828934534       38.7122009092  TIP3      2741            0.0000000000
     25572      2877  TIP3      H1             19.4601182148       19.0177309963       39.1662417589  TIP3      2741            0.0000000000
     25573      2877  TIP3      H2             20.2171575527       19.9746345984       38.2237681400  TIP3      2741            0.0000000000
     25574      2878  TIP3      OH2            10.3114285442       15.9763856845       38.8742265294  TIP3      2742            0.0000000000
     25575      2878  TIP3      H1             10.6307434113       15.6025681795       39.7130626583  TIP3      2742            0.0000000000
     25576      2878  TIP3      H2             11.1035210804       15.8169043578       38.3045783637  TIP3      2742            0.0000000000
     25577      2879  TIP3      OH2            15.8229768229       17.4369883440       38.0005237495  TIP3      2743            0.0000000000
     25578      2879  TIP3      H1             15.3331910573       17.3847023917       38.8585816576  TIP3      2743            0.0000000000
     25579      2879  TIP3      H2             15.9742440519       16.4655246985       37.9261610846  TIP3      2743            0.0000000000
     25580      2880  TIP3      OH2            11.8219599912       14.3363548653       41.2264445727  TIP3      2744            0.0000000000
     25581      2880  TIP3      H1             11.2196433830       13.7537382113       41.7044890295  TIP3      2744            0.0000000000
     25582      2880  TIP3      H2             12.1972674065       13.6956545521       40.5932752532  TIP3      2744            0.0000000000
     25583      2881  TIP3      OH2            12.4714816146       12.4916196090       39.1687221672  TIP3      2745            0.0000000000
     25584      2881  TIP3      H1             12.2396227301       12.7160962118       38.2407903629  TIP3      2745            0.0000000000
     25585      2881  TIP3      H2             13.4475779851       12.5950746579       39.1110233915  TIP3      2745            0.0000000000
     25586      2882  TIP3      OH2            22.0892815854       14.5399862323       38.9084248371  TIP3      2746            0.0000000000
     25587      2882  TIP3      H1             21.8182959801       14.2322035276       38.0119671117  TIP3      2746            0.0000000000
     25588      2882  TIP3      H2             21.9467123311       15.5208471417       38.8294382874  TIP3      2746            0.0000000000
     25589      2883  TIP3      OH2            12.5534836949       22.6761484881       40.9883667057  TIP3      2747            0.0000000000
     25590      2883  TIP3      H1             13.5075059256       22.8253605111       40.8697396407  TIP3      2747            0.0000000000
     25591      2883  TIP3      H2             12.1836686011       23.4122120589       40.4675873697  TIP3      2747            0.0000000000
     25592      2884  TIP3      OH2             5.7535342111       17.3888962031       40.4026354982  TIP3      2748            0.0000000000
     25593      2884  TIP3      H1              6.6847568007       17.6674343520       40.2897234216  TIP3      2748            0.0000000000
     25594      2884  TIP3      H2              5.5963103872       16.9462925493       39.5467731181  TIP3      2748            0.0000000000
     25595      2885  TIP3      OH2            23.5454932768       13.7100940945       41.0887033630  TIP3      2749            0.0000000000
     25596      2885  TIP3      H1             22.9673793190       13.7366633295       40.2992112610  TIP3      2749            0.0000000000
     25597      2885  TIP3      H2             23.5949487798       14.6567752205       41.2960738497  TIP3      2749            0.0000000000
     25598      2886  TIP3      OH2            21.8629134537       10.8045780043       40.2133182015  TIP3      2750            0.0000000000
     25599      2886  TIP3      H1             21.6361203336       11.3596952851       39.4580761015  TIP3      2750            0.0000000000
     25600      2886  TIP3      H2             21.3028555958       10.0223104209       40.0177539330  TIP3      2750            0.0000000000
     25601      2887  TIP3      OH2            20.9524929966        8.5076703970       39.0539213712  TIP3      2751            0.0000000000
     25602      2887  TIP3      H1             21.5830923556        7.9714178694       39.5863352458  TIP3      2751            0.0000000000
     25603      2887  TIP3      H2             20.0997095638        8.1729611085       39.3554749803  TIP3      2751            0.0000000000
     25604      2888  TIP3      OH2            22.7760030245        6.8090446977       40.4014098546  TIP3      2752            0.0000000000
     25605      2888  TIP3      H1             23.1682035009        6.2869363587       39.6556106758  TIP3      2752            0.0000000000
     25606      2888  TIP3      H2             23.5989274373        7.1138172969       40.8344670887  TIP3      2752            0.0000000000
     25607      2889  TIP3      OH2             6.7890880044        5.4247528195       41.7239826667  TIP3      2753            0.0000000000
     25608      2889  TIP3      H1              6.9885813161        5.0977083939       40.8321929210  TIP3      2753            0.0000000000
     25609      2889  TIP3      H2              5.8649347707        5.7137201965       41.6281025038  TIP3      2753            0.0000000000
     25610      2890  TIP3      OH2             7.9695881262        7.3938978792       39.8306904907  TIP3      2754            0.0000000000
     25611      2890  TIP3      H1              8.5550747827        6.7647462531       39.3701888293  TIP3      2754            0.0000000000
     25612      2890  TIP3      H2              8.2361577438        7.2656339088       40.7544578819  TIP3      2754            0.0000000000
     25613      2891  TIP3      OH2            15.5957709797       22.5035636173       41.3294893762  TIP3      2755            0.0000000000
     25614      2891  TIP3      H1             16.5423893381       22.3723136858       41.4828243188  TIP3      2755            0.0000000000
     25615      2891  TIP3      H2             15.5030397632       22.1394604362       40.4236702640  TIP3      2755            0.0000000000
     25616      2892  TIP3      OH2             7.4456207223       21.5153495158       38.9855552843  TIP3      2756            0.0000000000
     25617      2892  TIP3      H1              7.3430075635       21.6287078324       39.9487838287  TIP3      2756            0.0000000000
     25618      2892  TIP3      H2              8.0679545416       20.7572986770       38.9284277650  TIP3      2756            0.0000000000
     25619      2893  TIP3      OH2            30.0261710589        8.0549201847       39.1026046749  TIP3      2757            0.0000000000
     25620      2893  TIP3      H1             29.4961320246        8.1334843955       39.9092772911  TIP3      2757            0.0000000000
     25621      2893  TIP3      H2             29.5563013670        8.6920601677       38.5286919998  TIP3      2757            0.0000000000
     25622      2894  TIP3      OH2            24.5061194839        8.7925726596       41.3536293695  TIP3      2758            0.0000000000
     25623      2894  TIP3      H1             25.3101126404        8.9911767692       40.8406852405  TIP3      2758            0.0000000000
     25624      2894  TIP3      H2             23.8679348680        9.4197159221       40.9668414317  TIP3      2758            0.0000000000
     25625      2895  TIP3      OH2            29.4574182734       10.8730811012       40.5476235924  TIP3      2759            0.0000000000
     25626      2895  TIP3      H1             28.5824790526       10.7105647014       40.1253818546  TIP3      2759            0.0000000000
     25627      2895  TIP3      H2             30.0165001402       10.9794808676       39.7619838691  TIP3      2759            0.0000000000
     25628      2896  TIP3      OH2            26.0220783343       13.4966631691       40.1930489351  TIP3      2760            0.0000000000
     25629      2896  TIP3      H1             26.4835829075       14.1201642474       40.8036178974  TIP3      2760            0.0000000000
     25630      2896  TIP3      H2             25.1201932028       13.5116857728       40.5893787235  TIP3      2760            0.0000000000
     25631      2897  TIP3      OH2            31.4928864719       18.6323998597       38.8861094740  TIP3      2761            0.0000000000
     25632      2897  TIP3      H1             31.1937193348       18.0676741511       38.1647419756  TIP3      2761            0.0000000000
     25633      2897  TIP3      H2             30.9748030678       18.3058593648       39.6464369309  TIP3      2761            0.0000000000
     25634      2898  TIP3      OH2            29.8430777751       18.0388947897       41.1074384256  TIP3      2762            0.0000000000
     25635      2898  TIP3      H1             29.3581677352       17.6273339336       41.8548164523  TIP3      2762            0.0000000000
     25636      2898  TIP3      H2             29.9702864877       18.9472657590       41.4607235131  TIP3      2762            0.0000000000
     25637      2899  TIP3      OH2            26.9867981788       15.2649014155       41.8958045020  TIP3      2763            0.0000000000
     25638      2899  TIP3      H1             26.5193802493       14.8374242764       42.6588128633  TIP3      2763            0.0000000000
     25639      2899  TIP3      H2             27.7691208060       15.6553076226       42.3121594076  TIP3      2763            0.0000000000
     25640      2900  TIP3      OH2            29.8869132197       20.5010428536       42.2295651983  TIP3      2764            0.0000000000
     25641      2900  TIP3      H1             29.9823787106       21.2719355276       41.6393965355  TIP3      2764            0.0000000000
     25642      2900  TIP3      H2             30.6883220493       20.5796239723       42.7725186974  TIP3      2764            0.0000000000
     25643      2901  TIP3      OH2            28.9273706236        7.2296492510       41.6838539100  TIP3      2765            0.0000000000
     25644      2901  TIP3      H1             29.4788873084        7.9567336603       42.0367683990  TIP3      2765            0.0000000000
     25645      2901  TIP3      H2             29.5809715553        6.6442003913       41.2640585711  TIP3      2765            0.0000000000
     25646      2902  TIP3      OH2            27.3803720872       18.2069270101       40.0554858062  TIP3      2766            0.0000000000
     25647      2902  TIP3      H1             28.2610761397       18.3903867641       40.4377744308  TIP3      2766            0.0000000000
     25648      2902  TIP3      H2             27.6286609319       17.4362542576       39.5118258094  TIP3      2766            0.0000000000
     25649      2903  TIP3      OH2            26.4217481515       10.7407220844       39.8375943662  TIP3      2767            0.0000000000
     25650      2903  TIP3      H1             26.5039720463       11.7008219916       40.0407187775  TIP3      2767            0.0000000000
     25651      2903  TIP3      H2             25.5111453741       10.6565970731       39.5183498281  TIP3      2767            0.0000000000
     25652      2904  TIP3      OH2            28.8494752449       16.1210264652       38.8211922144  TIP3      2768            0.0000000000
     25653      2904  TIP3      H1             29.2006602075       15.7243924997       39.6389286162  TIP3      2768            0.0000000000
     25654      2904  TIP3      H2             29.6725964891       16.2845731073       38.3202017206  TIP3      2768            0.0000000000
     25655      2905  TIP3      OH2            30.6525950871       14.6135659043       40.9966591503  TIP3      2769            0.0000000000
     25656      2905  TIP3      H1             30.1670708824       13.9043422890       41.4375231891  TIP3      2769            0.0000000000
     25657      2905  TIP3      H2             31.0372731359       14.1109008092       40.2503485972  TIP3      2769            0.0000000000
     25658      2906  TIP3      OH2            31.7420577120       12.6535366670       39.3265792517  TIP3      2770            0.0000000000
     25659      2906  TIP3      H1             31.1796848133       12.4688657478       38.5477081459  TIP3      2770            0.0000000000
     25660      2906  TIP3      H2             32.6112214498       12.4689100950       38.9456182601  TIP3      2770            0.0000000000
     25661      2907  TIP3      OH2            31.6840114952       22.4819303688       40.7514993926  TIP3      2771            0.0000000000
     25662      2907  TIP3      H1             32.4278833129       22.5854019803       41.3574968788  TIP3      2771            0.0000000000
     25663      2907  TIP3      H2             31.7121689981       23.3355298740       40.2734787994  TIP3      2771            0.0000000000
     25664      2908  TIP3      OH2            24.7168212272       17.3756015867       40.4437829619  TIP3      2772            0.0000000000
     25665      2908  TIP3      H1             25.6618723297       17.6307036433       40.4466132418  TIP3      2772            0.0000000000
     25666      2908  TIP3      H2             24.6546714557       16.8667474717       39.6115916791  TIP3      2772            0.0000000000
     25667      2909  TIP3      OH2            25.3608471682        5.0098810040       41.3435136553  TIP3      2773            0.0000000000
     25668      2909  TIP3      H1             26.0358388223        5.6757008179       41.4850155814  TIP3      2773            0.0000000000
     25669      2909  TIP3      H2             25.4821852713        4.4245868839       42.1262835674  TIP3      2773            0.0000000000
     25670      2910  TIP3      OH2            26.9097096982        7.5654300967       40.0129015358  TIP3      2774            0.0000000000
     25671      2910  TIP3      H1             27.3792225563        6.8757826182       39.4995631867  TIP3      2774            0.0000000000
     25672      2910  TIP3      H2             27.4393092856        7.5739486977       40.8402837845  TIP3      2774            0.0000000000
     25673      2911  TIP3      OH2            26.3592416191       21.6988644457       39.3853770113  TIP3      2775            0.0000000000
     25674      2911  TIP3      H1             26.1906838681       21.7954003992       40.3411953272  TIP3      2775            0.0000000000
     25675      2911  TIP3      H2             27.0048151126       20.9715640509       39.3488392243  TIP3      2775            0.0000000000
     25676      2912  TIP3      OH2           -22.1662883741       31.5572780667       40.7922543676  TIP3      2776            0.0000000000
     25677      2912  TIP3      H1            -21.1877176346       31.5978218144       40.8833904637  TIP3      2776            0.0000000000
     25678      2912  TIP3      H2            -22.3072101238       30.6074198163       40.7751340010  TIP3      2776            0.0000000000
     25679      2913  TIP3      OH2           -19.4402021514       31.5108957051       41.2951627509  TIP3      2777            0.0000000000
     25680      2913  TIP3      H1            -19.2613066509       32.0681893132       42.0826891711  TIP3      2777            0.0000000000
     25681      2913  TIP3      H2            -18.8157064289       31.9687487938       40.6726004420  TIP3      2777            0.0000000000
     25682      2914  TIP3      OH2           -16.8720306184       24.1850650267       41.4709952087  TIP3      2778            0.0000000000
     25683      2914  TIP3      H1            -16.7898950654       23.5943308163       42.2356246662  TIP3      2778            0.0000000000
     25684      2914  TIP3      H2            -15.9543829212       24.4782785954       41.2951766431  TIP3      2778            0.0000000000
     25685      2915  TIP3      OH2           -17.9021149299       32.7631752913       39.4747703419  TIP3      2779            0.0000000000
     25686      2915  TIP3      H1            -17.4340564732       32.3864992175       38.7120196603  TIP3      2779            0.0000000000
     25687      2915  TIP3      H2            -17.1620431266       33.0038946791       40.0681039152  TIP3      2779            0.0000000000
     25688      2916  TIP3      OH2           -22.5607670206       26.3991245816       40.5713430400  TIP3      2780            0.0000000000
     25689      2916  TIP3      H1            -22.9692830715       26.1663495260       41.4183186408  TIP3      2780            0.0000000000
     25690      2916  TIP3      H2            -23.3124024064       26.1940043795       39.9752170234  TIP3      2780            0.0000000000
     25691      2917  TIP3      OH2           -26.3572687752       27.1626074975       39.3618193901  TIP3      2781            0.0000000000
     25692      2917  TIP3      H1            -26.9517458545       26.8483524532       40.0695971757  TIP3      2781            0.0000000000
     25693      2917  TIP3      H2            -26.9339260017       27.7689722176       38.8354775660  TIP3      2781            0.0000000000
     25694      2918  TIP3      OH2           -31.8417540421       27.6348286388       41.7478750903  TIP3      2782            0.0000000000
     25695      2918  TIP3      H1            -31.0423555514       28.0699264240       41.4143959923  TIP3      2782            0.0000000000
     25696      2918  TIP3      H2            -32.1468697255       28.2600330195       42.4180617829  TIP3      2782            0.0000000000
     25697      2919  TIP3      OH2           -27.2766631706       29.3110889428       40.8563503003  TIP3      2783            0.0000000000
     25698      2919  TIP3      H1            -28.1331509132       29.2176618434       40.3938789095  TIP3      2783            0.0000000000
     25699      2919  TIP3      H2            -26.7919777870       29.8513220536       40.2031842816  TIP3      2783            0.0000000000
     25700      2920  TIP3      OH2           -20.2718516157       28.0485315698       40.8444551325  TIP3      2784            0.0000000000
     25701      2920  TIP3      H1            -21.0884117514       27.5258020500       40.7392069742  TIP3      2784            0.0000000000
     25702      2920  TIP3      H2            -20.4821380448       28.5913390993       41.6152219350  TIP3      2784            0.0000000000
     25703      2921  TIP3      OH2           -31.5041399856       31.9954159058       39.7952507487  TIP3      2785            0.0000000000
     25704      2921  TIP3      H1            -31.0670312788       32.8714037152       39.7022180358  TIP3      2785            0.0000000000
     25705      2921  TIP3      H2            -32.2153565733       32.2940190755       40.3850910140  TIP3      2785            0.0000000000
     25706      2922  TIP3      OH2           -27.6064586988       26.0669574625       41.5902994935  TIP3      2786            0.0000000000
     25707      2922  TIP3      H1            -27.5053205127       26.9850346317       41.8955063218  TIP3      2786            0.0000000000
     25708      2922  TIP3      H2            -26.7379075250       25.7290972908       41.8855072234  TIP3      2786            0.0000000000
     25709      2923  TIP3      OH2           -29.8487821013       29.4595269010       39.6545373973  TIP3      2787            0.0000000000
     25710      2923  TIP3      H1            -30.4587471283       30.1195922886       40.0255553953  TIP3      2787            0.0000000000
     25711      2923  TIP3      H2            -30.3704782451       29.0335352517       38.9650277696  TIP3      2787            0.0000000000
     25712      2924  TIP3      OH2           -25.9859948458       32.4967671940       42.1017360760  TIP3      2788            0.0000000000
     25713      2924  TIP3      H1            -26.5134422842       33.2976253829       41.9028747514  TIP3      2788            0.0000000000
     25714      2924  TIP3      H2            -25.8118551012       32.1514118639       41.2168686717  TIP3      2788            0.0000000000
     25715      2925  TIP3      OH2           -25.2156951578       31.0095615510       39.1722711238  TIP3      2789            0.0000000000
     25716      2925  TIP3      H1            -25.0213228455       31.3012476635       38.2626375525  TIP3      2789            0.0000000000
     25717      2925  TIP3      H2            -24.4765347612       31.4109915754       39.6472381669  TIP3      2789            0.0000000000
     25718      2926  TIP3      OH2           -14.2485096998       31.4854530050       40.6779124135  TIP3      2790            0.0000000000
     25719      2926  TIP3      H1            -14.8746083482       31.1346474528       40.0091095547  TIP3      2790            0.0000000000
     25720      2926  TIP3      H2            -14.8254696510       32.1163186819       41.1530319395  TIP3      2790            0.0000000000
     25721      2927  TIP3      OH2           -16.0345321186       29.7393550445       39.3528892642  TIP3      2791            0.0000000000
     25722      2927  TIP3      H1            -15.4993364107       29.8791947431       38.5476155957  TIP3      2791            0.0000000000
     25723      2927  TIP3      H2            -16.1319601570       28.7815734892       39.2992430884  TIP3      2791            0.0000000000
     25724      2928  TIP3      OH2           -16.8706264936       26.6976751908       38.4080137291  TIP3      2792            0.0000000000
     25725      2928  TIP3      H1            -16.0531131591       26.3236204921       38.7868940608  TIP3      2792            0.0000000000
     25726      2928  TIP3      H2            -17.1225975407       26.0260609404       37.7589139961  TIP3      2792            0.0000000000
     25727      2929  TIP3      OH2           -14.8745149057       25.5269840366       40.3201021592  TIP3      2793            0.0000000000
     25728      2929  TIP3      H1            -14.5442189932       24.8946262819       39.6360709596  TIP3      2793            0.0000000000
     25729      2929  TIP3      H2            -14.0518911975       25.9295744129       40.6648845549  TIP3      2793            0.0000000000
     25730      2930  TIP3      OH2           -31.6128562529       23.9831011216       41.3569731046  TIP3      2794            0.0000000000
     25731      2930  TIP3      H1            -31.2801567397       24.0721118884       40.4485806851  TIP3      2794            0.0000000000
     25732      2930  TIP3      H2            -31.9730056720       24.8778928151       41.4788323503  TIP3      2794            0.0000000000
     25733      2931  TIP3      OH2           -29.8413905709       26.0290749540       39.9813389038  TIP3      2795            0.0000000000
     25734      2931  TIP3      H1            -29.2478094882       25.4321271648       39.4829710816  TIP3      2795            0.0000000000
     25735      2931  TIP3      H2            -29.3196325162       26.1442656965       40.7968051563  TIP3      2795            0.0000000000
     25736      2932  TIP3      OH2            -3.1049906122       31.3088704065       39.8899787306  TIP3      2796            0.0000000000
     25737      2932  TIP3      H1             -2.3597022733       31.6881443531       40.3958906270  TIP3      2796            0.0000000000
     25738      2932  TIP3      H2             -3.0252708328       30.3802770251       40.1422806912  TIP3      2796            0.0000000000
     25739      2933  TIP3      OH2            -0.5429954182       31.6514594651       41.2247481912  TIP3      2797            0.0000000000
     25740      2933  TIP3      H1             -0.3202503409       31.8966160384       42.1509048005  TIP3      2797            0.0000000000
     25741      2933  TIP3      H2              0.0891834328       32.2126459061       40.7258578582  TIP3      2797            0.0000000000
     25742      2934  TIP3      OH2             2.4847749061       23.5636532545       41.6682301855  TIP3      2798            0.0000000000
     25743      2934  TIP3      H1              1.7734804876       23.8788597102       42.2277683455  TIP3      2798            0.0000000000
     25744      2934  TIP3      H2              2.9789563846       24.3748486222       41.4141145373  TIP3      2798            0.0000000000
     25745      2935  TIP3      OH2             0.9290013220       33.1750201326       39.5539294780  TIP3      2799            0.0000000000
     25746      2935  TIP3      H1              1.2952697726       32.9157986854       38.6777971553  TIP3      2799            0.0000000000
     25747      2935  TIP3      H2              1.7438765739       33.3302912427       40.0572198971  TIP3      2799            0.0000000000
     25748      2936  TIP3      OH2            -3.7913732913       26.7191724453       40.3873078945  TIP3      2800            0.0000000000
     25749      2936  TIP3      H1             -4.4472187950       26.9289472724       41.0646413689  TIP3      2800            0.0000000000
     25750      2936  TIP3      H2             -4.2456547683       26.0127675519       39.9071991103  TIP3      2800            0.0000000000
     25751      2937  TIP3      OH2            -7.4767279838       27.0999985393       39.4674420864  TIP3      2801            0.0000000000
     25752      2937  TIP3      H1             -7.9509610634       26.7550030282       40.2473832446  TIP3      2801            0.0000000000
     25753      2937  TIP3      H2             -8.0177886869       27.8725547482       39.2355256879  TIP3      2801            0.0000000000
     25754      2938  TIP3      OH2           -12.9828552452       26.9415859451       41.7028870550  TIP3      2802            0.0000000000
     25755      2938  TIP3      H1            -12.2787613487       26.8969921144       41.0233731255  TIP3      2802            0.0000000000
     25756      2938  TIP3      H2            -12.6891104907       27.7253876750       42.1939204347  TIP3      2802            0.0000000000
     25757      2939  TIP3      OH2            -8.4004181405       30.1607328610       40.8956870517  TIP3      2803            0.0000000000
     25758      2939  TIP3      H1             -9.0189847238       30.0202773255       40.1633564609  TIP3      2803            0.0000000000
     25759      2939  TIP3      H2             -7.5526209980       30.2249021505       40.3913329183  TIP3      2803            0.0000000000
     25760      2940  TIP3      OH2            -1.1222276763       27.6008996332       40.6356472523  TIP3      2804            0.0000000000
     25761      2940  TIP3      H1             -2.0607200353       27.3343847213       40.5464666550  TIP3      2804            0.0000000000
     25762      2940  TIP3      H2             -1.2073275369       28.5557263774       40.5822322004  TIP3      2804            0.0000000000
     25763      2941  TIP3      OH2           -11.6875897171       31.9356716978       39.7008571969  TIP3      2805            0.0000000000
     25764      2941  TIP3      H1            -11.3618910285       32.3821484916       40.4976658355  TIP3      2805            0.0000000000
     25765      2941  TIP3      H2            -12.6546304906       32.0013010181       39.8742839523  TIP3      2805            0.0000000000
     25766      2942  TIP3      OH2            -8.7361793032       26.0281610518       41.9118715960  TIP3      2806            0.0000000000
     25767      2942  TIP3      H1             -8.8807990103       26.9778424895       42.0603881270  TIP3      2806            0.0000000000
     25768      2942  TIP3      H2             -7.8081849291       26.0174092066       42.2239474033  TIP3      2806            0.0000000000
     25769      2943  TIP3      OH2           -11.9192939750       29.2430085394       39.8521981801  TIP3      2807            0.0000000000
     25770      2943  TIP3      H1            -11.7808474679       30.2129902993       39.8894642736  TIP3      2807            0.0000000000
     25771      2943  TIP3      H2            -12.6967493427       29.1463267349       40.4259686384  TIP3      2807            0.0000000000
     25772      2944  TIP3      OH2            -7.7834363008       33.1048663413       40.7088107047  TIP3      2808            0.0000000000
     25773      2944  TIP3      H1             -7.3047312304       33.4009393550       41.4903344298  TIP3      2808            0.0000000000
     25774      2944  TIP3      H2             -7.8218980871       32.1471759308       40.8593806001  TIP3      2808            0.0000000000
     25775      2945  TIP3      OH2            -6.1195335225       30.7637399254       39.6221000756  TIP3      2809            0.0000000000
     25776      2945  TIP3      H1             -6.3975535060       30.8587509516       38.6786928033  TIP3      2809            0.0000000000
     25777      2945  TIP3      H2             -5.1625147161       30.6983024740       39.5243302863  TIP3      2809            0.0000000000
     25778      2946  TIP3      OH2             4.7882298764       31.2905631485       40.9759897974  TIP3      2810            0.0000000000
     25779      2946  TIP3      H1              3.9423354636       30.8681429919       40.7405615615  TIP3      2810            0.0000000000
     25780      2946  TIP3      H2              4.6285914491       31.4928052673       41.9114372476  TIP3      2810            0.0000000000
     25781      2947  TIP3      OH2             2.7151286749       29.7902607827       39.7179212234  TIP3      2811            0.0000000000
     25782      2947  TIP3      H1              3.1928425645       30.1955208613       38.9649311800  TIP3      2811            0.0000000000
     25783      2947  TIP3      H2              2.9077399914       28.8563711869       39.5767432328  TIP3      2811            0.0000000000
     25784      2948  TIP3      OH2             2.0964747267       26.5975000774       38.6250535367  TIP3      2812            0.0000000000
     25785      2948  TIP3      H1              2.7931838199       26.2225039089       39.1968090695  TIP3      2812            0.0000000000
     25786      2948  TIP3      H2              1.3603270496       26.6545649244       39.2596094526  TIP3      2812            0.0000000000
     25787      2949  TIP3      OH2             4.0467007709       25.3794857527       40.4323339906  TIP3      2813            0.0000000000
     25788      2949  TIP3      H1              4.6157426717       24.8672085026       39.7987643464  TIP3      2813            0.0000000000
     25789      2949  TIP3      H2              4.7171723470       25.9949090791       40.7843710549  TIP3      2813            0.0000000000
     25790      2950  TIP3      OH2           -12.7244748082       23.4523146541       41.4112670754  TIP3      2814            0.0000000000
     25791      2950  TIP3      H1            -12.8402787991       24.3437003423       41.7681139649  TIP3      2814            0.0000000000
     25792      2950  TIP3      H2            -12.4252533434       22.9764135043       42.2270703417  TIP3      2814            0.0000000000
     25793      2951  TIP3      OH2           -10.7269256202       26.0310225038       40.1550410668  TIP3      2815            0.0000000000
     25794      2951  TIP3      H1            -10.4983435583       25.3845453131       39.4680978939  TIP3      2815            0.0000000000
     25795      2951  TIP3      H2            -10.1470064916       25.7207177289       40.8813488522  TIP3      2815            0.0000000000
     25796      2952  TIP3      OH2            15.8153918771       30.9953534697       39.8511019805  TIP3      2816            0.0000000000
     25797      2952  TIP3      H1             16.3597966021       31.3473549600       40.5846075609  TIP3      2816            0.0000000000
     25798      2952  TIP3      H2             15.6356707318       30.0980888521       40.1561726501  TIP3      2816            0.0000000000
     25799      2953  TIP3      OH2            17.3411320733       32.0008063756       41.9153653401  TIP3      2817            0.0000000000
     25800      2953  TIP3      H1             17.8830706418       32.3120816526       42.6838707492  TIP3      2817            0.0000000000
     25801      2953  TIP3      H2             16.7851535842       32.7863280791       41.8169500600  TIP3      2817            0.0000000000
     25802      2954  TIP3      OH2            21.4848217362       24.1595398270       42.3026699455  TIP3      2818            0.0000000000
     25803      2954  TIP3      H1             20.5402649730       24.0885900356       42.1244934176  TIP3      2818            0.0000000000
     25804      2954  TIP3      H2             21.8341764131       24.7276204899       41.5755747533  TIP3      2818            0.0000000000
     25805      2955  TIP3      OH2            19.7933342633       32.4416344409       39.7815066925  TIP3      2819            0.0000000000
     25806      2955  TIP3      H1             20.0910392392       32.6270916314       38.8707185714  TIP3      2819            0.0000000000
     25807      2955  TIP3      H2             20.1396213253       33.2034691212       40.2712132791  TIP3      2819            0.0000000000
     25808      2956  TIP3      OH2            15.3644950964       26.7389972732       40.4918373997  TIP3      2820            0.0000000000
     25809      2956  TIP3      H1             14.5535827032       26.5704492126       40.9883912713  TIP3      2820            0.0000000000
     25810      2956  TIP3      H2             15.1921594603       26.2200727432       39.6905882829  TIP3      2820            0.0000000000
     25811      2957  TIP3      OH2            11.2436399544       27.1540123754       39.2620032811  TIP3      2821            0.0000000000
     25812      2957  TIP3      H1             10.8135265067       27.1175742874       40.1355986230  TIP3      2821            0.0000000000
     25813      2957  TIP3      H2             10.6656427536       27.7809834200       38.7848728327  TIP3      2821            0.0000000000
     25814      2958  TIP3      OH2             5.7751392362       27.2645597917       41.6196007058  TIP3      2822            0.0000000000
     25815      2958  TIP3      H1              6.5546616250       27.4665330269       41.0635454586  TIP3      2822            0.0000000000
     25816      2958  TIP3      H2              5.4831338345       28.1670340290       41.7901791447  TIP3      2822            0.0000000000
     25817      2959  TIP3      OH2            10.4240554719       29.5201543208       40.6040455260  TIP3      2823            0.0000000000
     25818      2959  TIP3      H1              9.7120526086       29.4234914848       39.9493588453  TIP3      2823            0.0000000000
     25819      2959  TIP3      H2             11.1083703042       30.0151920280       40.1095943551  TIP3      2823            0.0000000000
     25820      2960  TIP3      OH2            17.4028827978       28.4437059167       41.3087125606  TIP3      2824            0.0000000000
     25821      2960  TIP3      H1             16.6404908480       27.9676811220       40.9076015168  TIP3      2824            0.0000000000
     25822      2960  TIP3      H2             17.2770082042       28.2676230045       42.2726578757  TIP3      2824            0.0000000000
     25823      2961  TIP3      OH2             7.2060895770       32.0410100395       39.9988420887  TIP3      2825            0.0000000000
     25824      2961  TIP3      H1              7.4259876437       32.3669253135       40.8941353891  TIP3      2825            0.0000000000
     25825      2961  TIP3      H2              6.2270701110       32.0468474484       40.0788347567  TIP3      2825            0.0000000000
     25826      2962  TIP3      OH2             9.9794187731       26.1868112983       41.6766852329  TIP3      2826            0.0000000000
     25827      2962  TIP3      H1             10.4857501324       26.8701765459       42.1748845927  TIP3      2826            0.0000000000
     25828      2962  TIP3      H2             10.6478145923       25.4947229096       41.5455471649  TIP3      2826            0.0000000000
     25829      2963  TIP3      OH2             7.2182172207       29.3289805465       39.6967240757  TIP3      2827            0.0000000000
     25830      2963  TIP3      H1              7.5088202550       30.1592945699       40.1182338469  TIP3      2827            0.0000000000
     25831      2963  TIP3      H2              6.2612769360       29.4003773198       39.7944797992  TIP3      2827            0.0000000000
     25832      2964  TIP3      OH2            11.3980262885       33.3179686786       41.2121088665  TIP3      2828            0.0000000000
     25833      2964  TIP3      H1             11.6480973553       33.0351833603       42.1004011384  TIP3      2828            0.0000000000
     25834      2964  TIP3      H2             11.6861518451       32.5559397347       40.6812658721  TIP3      2828            0.0000000000
     25835      2965  TIP3      OH2            12.4104711141       31.1098590561       39.2591362360  TIP3      2829            0.0000000000
     25836      2965  TIP3      H1             12.1804206247       31.2072887789       38.3091575286  TIP3      2829            0.0000000000
     25837      2965  TIP3      H2             13.3558666167       31.3466076735       39.2156433983  TIP3      2829            0.0000000000
     25838      2966  TIP3      OH2            23.1838350163       31.6295264290       41.0248406585  TIP3      2830            0.0000000000
     25839      2966  TIP3      H1             22.4913769209       31.9920364214       40.4508136965  TIP3      2830            0.0000000000
     25840      2966  TIP3      H2             23.1264148010       32.1718616577       41.8253422086  TIP3      2830            0.0000000000
     25841      2967  TIP3      OH2            20.6653333606       29.2674182286       39.2648149230  TIP3      2831            0.0000000000
     25842      2967  TIP3      H1             21.4595095569       29.6024839718       38.7999917156  TIP3      2831            0.0000000000
     25843      2967  TIP3      H2             20.7063877584       28.3047534798       39.0590276125  TIP3      2831            0.0000000000
     25844      2968  TIP3      OH2            20.8556732838       26.6201227913       38.7868019904  TIP3      2832            0.0000000000
     25845      2968  TIP3      H1             21.5474804810       26.2694122572       39.4014637593  TIP3      2832            0.0000000000
     25846      2968  TIP3      H2             20.0636636252       26.1832211939       39.1203285834  TIP3      2832            0.0000000000
     25847      2969  TIP3      OH2            22.6810053899       25.6763954445       40.4661247972  TIP3      2833            0.0000000000
     25848      2969  TIP3      H1             23.0132343995       25.0364705187       39.7911102136  TIP3      2833            0.0000000000
     25849      2969  TIP3      H2             23.5196450673       26.0432844649       40.8258665063  TIP3      2833            0.0000000000
     25850      2970  TIP3      OH2             6.6688737812       23.8058453366       41.3085792649  TIP3      2834            0.0000000000
     25851      2970  TIP3      H1              6.8735148447       24.3303737669       40.5172925504  TIP3      2834            0.0000000000
     25852      2970  TIP3      H2              6.2154480152       24.4218190508       41.8969432977  TIP3      2834            0.0000000000
     25853      2971  TIP3      OH2             7.9425935660       26.0880063336       39.8776249426  TIP3      2835            0.0000000000
     25854      2971  TIP3      H1              8.4730045594       25.4734306627       39.3365482253  TIP3      2835            0.0000000000
     25855      2971  TIP3      H2              8.5617870415       26.2674290913       40.6272930802  TIP3      2835            0.0000000000
     25856      2972  TIP3      OH2            30.5820095774       27.6061631114       39.5670800564  TIP3      2836            0.0000000000
     25857      2972  TIP3      H1             30.1175321846       27.1340447235       40.2902110397  TIP3      2836            0.0000000000
     25858      2972  TIP3      H2             29.9438442621       28.2901717028       39.2832943366  TIP3      2836            0.0000000000
     25859      2973  TIP3      OH2            24.9121823143       26.8559786593       41.6900932949  TIP3      2837            0.0000000000
     25860      2973  TIP3      H1             25.6732082447       26.9635107865       41.0809613849  TIP3      2837            0.0000000000
     25861      2973  TIP3      H2             24.7053289326       27.7799013175       41.8928331371  TIP3      2837            0.0000000000
     25862      2974  TIP3      OH2            29.1154930762       30.2479689483       41.0143932363  TIP3      2838            0.0000000000
     25863      2974  TIP3      H1             28.5065364667       29.8668797605       40.3598964484  TIP3      2838            0.0000000000
     25864      2974  TIP3      H2             29.8483124447       30.4949196520       40.4165983003  TIP3      2838            0.0000000000
     25865      2975  TIP3      OH2            25.7754555459       32.0724300399       39.9866447822  TIP3      2839            0.0000000000
     25866      2975  TIP3      H1             26.0569330892       32.5432889468       40.7932742878  TIP3      2839            0.0000000000
     25867      2975  TIP3      H2             24.8145883077       32.0449750596       40.1509359659  TIP3      2839            0.0000000000
     25868      2976  TIP3      OH2            29.1140897085       26.4586710799       41.7695068043  TIP3      2840            0.0000000000
     25869      2976  TIP3      H1             28.8075918146       27.2525567698       42.2346687832  TIP3      2840            0.0000000000
     25870      2976  TIP3      H2             30.0359757909       26.5060987368       42.0910632147  TIP3      2840            0.0000000000
     25871      2977  TIP3      OH2            25.7419973077       29.4419295162       39.6706535056  TIP3      2841            0.0000000000
     25872      2977  TIP3      H1             25.9622047696       30.3369250999       40.0137433887  TIP3      2841            0.0000000000
     25873      2977  TIP3      H2             24.7858045837       29.4432104224       39.8333091087  TIP3      2841            0.0000000000
     25874      2978  TIP3      OH2            30.0461532642       33.2541115439       40.4248904331  TIP3      2842            0.0000000000
     25875      2978  TIP3      H1             30.1623925032       32.7514233978       41.2455093027  TIP3      2842            0.0000000000
     25876      2978  TIP3      H2             30.7001883903       32.8127830411       39.8527581146  TIP3      2842            0.0000000000
     25877      2979  TIP3      OH2            31.3554694804       30.9513238809       39.3946378376  TIP3      2843            0.0000000000
     25878      2979  TIP3      H1             31.0013018771       30.5248320606       38.5913516163  TIP3      2843            0.0000000000
     25879      2979  TIP3      H2             32.2306438211       31.1847231158       39.0424100789  TIP3      2843            0.0000000000
     25880      2980  TIP3      OH2            25.3870112403       23.9446947611       41.6688183513  TIP3      2844            0.0000000000
     25881      2980  TIP3      H1             26.1966079215       24.1098940724       41.1800997902  TIP3      2844            0.0000000000
     25882      2980  TIP3      H2             25.1688663692       24.8456294305       41.9565901646  TIP3      2844            0.0000000000
     25883      2981  TIP3      OH2            27.1015700026       26.0455401563       40.0735133632  TIP3      2845            0.0000000000
     25884      2981  TIP3      H1             27.4361074496       25.4006873847       39.4192012543  TIP3      2845            0.0000000000
     25885      2981  TIP3      H2             27.8842788058       26.1106977332       40.6639933442  TIP3      2845            0.0000000000
     25886      2982  TIP3      OH2           -20.6604581700      -23.0607949266      -35.5271022561  TIP3      2846            0.0000000000
     25887      2982  TIP3      H1            -20.9080987327      -22.1048543930      -35.5009772266  TIP3      2846            0.0000000000
     25888      2982  TIP3      H2            -21.2711098186      -23.3839220790      -36.2122393068  TIP3      2846            0.0000000000
     25889      2983  TIP3      OH2           -22.1243861540      -24.4361161412      -32.3270255919  TIP3      2847            0.0000000000
     25890      2983  TIP3      H1            -22.1821001116      -24.7077561075      -31.3923434014  TIP3      2847            0.0000000000
     25891      2983  TIP3      H2            -22.7530040626      -25.0351848110      -32.7587602373  TIP3      2847            0.0000000000
     25892      2984  TIP3      OH2           -29.9501071500      -23.9806584159      -30.6516975521  TIP3      2848            0.0000000000
     25893      2984  TIP3      H1            -29.6424537882      -24.8227630358      -30.2956491139  TIP3      2848            0.0000000000
     25894      2984  TIP3      H2            -29.2630857510      -23.3648822904      -30.3369518975  TIP3      2848            0.0000000000
     25895      2985  TIP3      OH2           -18.6408674802      -21.3558325724      -33.3430876684  TIP3      2849            0.0000000000
     25896      2985  TIP3      H1            -18.8567045466      -22.0808385982      -32.7324298177  TIP3      2849            0.0000000000
     25897      2985  TIP3      H2            -18.2081788261      -20.7122421130      -32.7575934008  TIP3      2849            0.0000000000
     25898      2986  TIP3      OH2           -28.7452104885      -19.8272044055      -32.3006027892  TIP3      2850            0.0000000000
     25899      2986  TIP3      H1            -29.0605001271      -20.7378003341      -32.5062784085  TIP3      2850            0.0000000000
     25900      2986  TIP3      H2            -27.7824644377      -19.9380690089      -32.4593287214  TIP3      2850            0.0000000000
     25901      2987  TIP3      OH2           -32.3977581202      -26.1802874281      -36.3520775904  TIP3      2851            0.0000000000
     25902      2987  TIP3      H1            -32.2705720400      -25.2383582598      -36.5237517837  TIP3      2851            0.0000000000
     25903      2987  TIP3      H2            -33.2884483625      -26.3150844911      -36.7014571458  TIP3      2851            0.0000000000
     25904      2988  TIP3      OH2           -31.4879218810      -23.8585735269      -34.0869021483  TIP3      2852            0.0000000000
     25905      2988  TIP3      H1            -31.0555922573      -24.7395227221      -33.9618077008  TIP3      2852            0.0000000000
     25906      2988  TIP3      H2            -30.7212353621      -23.2821470228      -34.2570367794  TIP3      2852            0.0000000000
     25907      2989  TIP3      OH2           -21.3056786861      -15.8918181750      -33.6030545596  TIP3      2853            0.0000000000
     25908      2989  TIP3      H1            -20.7334085491      -16.4464535957      -34.1852666065  TIP3      2853            0.0000000000
     25909      2989  TIP3      H2            -21.8289488826      -16.5944264491      -33.1990797430  TIP3      2853            0.0000000000
     25910      2990  TIP3      OH2           -24.2133815754      -21.2345288234      -31.1211946516  TIP3      2854            0.0000000000
     25911      2990  TIP3      H1            -23.6103255330      -21.7082073469      -31.7143879848  TIP3      2854            0.0000000000
     25912      2990  TIP3      H2            -23.5732788572      -20.8792341890      -30.4676833292  TIP3      2854            0.0000000000
     25913      2991  TIP3      OH2           -15.2698710458      -30.0183104909      -31.3410199146  TIP3      2855            0.0000000000
     25914      2991  TIP3      H1            -14.8738470407      -29.6072633476      -30.5352531703  TIP3      2855            0.0000000000
     25915      2991  TIP3      H2            -14.4729236832      -30.2561588628      -31.8433888667  TIP3      2855            0.0000000000
     25916      2992  TIP3      OH2           -20.1351690037      -26.8812055670      -30.9292563135  TIP3      2856            0.0000000000
     25917      2992  TIP3      H1            -20.2247273984      -27.6322850082      -30.3126203997  TIP3      2856            0.0000000000
     25918      2992  TIP3      H2            -20.6665476993      -27.1910931278      -31.6951585998  TIP3      2856            0.0000000000
     25919      2993  TIP3      OH2           -27.6581345327      -29.1705336239      -34.2104513915  TIP3      2857            0.0000000000
     25920      2993  TIP3      H1            -27.4325768323      -28.4398613276      -34.8329819458  TIP3      2857            0.0000000000
     25921      2993  TIP3      H2            -27.8660919409      -29.8716558008      -34.8675358598  TIP3      2857            0.0000000000
     25922      2994  TIP3      OH2           -19.7689487111      -28.5047158498      -35.0128481547  TIP3      2858            0.0000000000
     25923      2994  TIP3      H1            -19.1475877558      -28.8814035202      -34.3555555556  TIP3      2858            0.0000000000
     25924      2994  TIP3      H2            -19.2681320319      -27.7908877781      -35.4432525821  TIP3      2858            0.0000000000
     25925      2995  TIP3      OH2           -30.3992422496      -26.1575335321      -33.4241284889  TIP3      2859            0.0000000000
     25926      2995  TIP3      H1            -30.0209145383      -26.7354866168      -32.7399260978  TIP3      2859            0.0000000000
     25927      2995  TIP3      H2            -30.0438395894      -26.5593933444      -34.2514564968  TIP3      2859            0.0000000000
     25928      2996  TIP3      OH2           -25.9253784772      -25.3046159513      -33.7125863012  TIP3      2860            0.0000000000
     25929      2996  TIP3      H1            -25.1875487470      -25.8699739667      -33.3815466768  TIP3      2860            0.0000000000
     25930      2996  TIP3      H2            -26.2322714505      -25.8691662548      -34.4626619063  TIP3      2860            0.0000000000
     25931      2997  TIP3      OH2           -14.8439544554      -28.8241066963      -28.8741700638  TIP3      2861            0.0000000000
     25932      2997  TIP3      H1            -15.2973071624      -27.9759344732      -29.1064455771  TIP3      2861            0.0000000000
     25933      2997  TIP3      H2            -14.7407197841      -28.6741159238      -27.9309773780  TIP3      2861            0.0000000000
     25934      2998  TIP3      OH2           -28.2566271289      -30.1633708354      -30.2711997478  TIP3      2862            0.0000000000
     25935      2998  TIP3      H1            -28.5112486972      -29.4351994247      -30.8861112720  TIP3      2862            0.0000000000
     25936      2998  TIP3      H2            -29.0298857326      -30.1743633115      -29.6664376248  TIP3      2862            0.0000000000
     25937      2999  TIP3      OH2           -21.6540472704      -20.8343225941      -36.5326797040  TIP3      2863            0.0000000000
     25938      2999  TIP3      H1            -21.7676027053      -20.7800813122      -37.4976740314  TIP3      2863            0.0000000000
     25939      2999  TIP3      H2            -22.1282161175      -20.0261952555      -36.2493361720  TIP3      2863            0.0000000000
     25940      3000  TIP3      OH2           -26.5913391897      -22.5751861201      -30.2837889485  TIP3      2864            0.0000000000
     25941      3000  TIP3      H1            -27.0208378198      -21.8580357087      -29.7662870027  TIP3      2864            0.0000000000
     25942      3000  TIP3      H2            -25.8775400710      -22.0672995772      -30.7252076025  TIP3      2864            0.0000000000
     25943      3001  TIP3      OH2           -17.7485611261      -29.8219523998      -33.8456416292  TIP3      2865            0.0000000000
     25944      3001  TIP3      H1            -18.1348291144      -29.9874632382      -32.9602584644  TIP3      2865            0.0000000000
     25945      3001  TIP3      H2            -16.8145612196      -29.7072516776      -33.6018101006  TIP3      2865            0.0000000000
     25946      3002  TIP3      OH2           -28.9341434855      -28.2357543202      -31.9955981377  TIP3      2866            0.0000000000
     25947      3002  TIP3      H1            -28.3841892917      -27.5615757057      -31.5351991199  TIP3      2866            0.0000000000
     25948      3002  TIP3      H2            -28.4007675344      -28.4660658899      -32.8016090756  TIP3      2866            0.0000000000
     25949      3003  TIP3      OH2           -27.6479260149      -20.3794524543      -29.1595870484  TIP3      2867            0.0000000000
     25950      3003  TIP3      H1            -27.8914951025      -19.7826140637      -29.8847882382  TIP3      2867            0.0000000000
     25951      3003  TIP3      H2            -28.4666324854      -20.3521970274      -28.6046986750  TIP3      2867            0.0000000000
     25952      3004  TIP3      OH2           -31.4248201226      -20.9574481357      -38.3185596569  TIP3      2868            0.0000000000
     25953      3004  TIP3      H1            -32.3241881983      -21.3471397725      -38.3556459497  TIP3      2868            0.0000000000
     25954      3004  TIP3      H2            -31.4618451515      -20.4473846275      -37.4923518165  TIP3      2868            0.0000000000
     25955      3005  TIP3      OH2           -17.8309834328      -19.3003444586      -31.5299491824  TIP3      2869            0.0000000000
     25956      3005  TIP3      H1            -18.7941139779      -19.2222994867      -31.3463148215  TIP3      2869            0.0000000000
     25957      3005  TIP3      H2            -17.6767455974      -18.3803232572      -31.8380246299  TIP3      2869            0.0000000000
     25958      3006  TIP3      OH2           -17.5015793243      -29.7033122393      -29.5896583200  TIP3      2870            0.0000000000
     25959      3006  TIP3      H1            -18.2960294913      -29.7879431927      -30.1297650970  TIP3      2870            0.0000000000
     25960      3006  TIP3      H2            -16.7901894413      -29.7873527156      -30.2563924345  TIP3      2870            0.0000000000
     25961      3007  TIP3      OH2           -24.5384254270      -32.3954458090      -32.5848783558  TIP3      2871            0.0000000000
     25962      3007  TIP3      H1            -24.8341760612      -33.2904001926      -32.8448405434  TIP3      2871            0.0000000000
     25963      3007  TIP3      H2            -25.3909684317      -32.0369488966      -32.2410153770  TIP3      2871            0.0000000000
     25964      3008  TIP3      OH2           -19.7311770852      -17.1733708803      -35.2303726721  TIP3      2872            0.0000000000
     25965      3008  TIP3      H1            -19.5198574621      -18.0415246482      -35.6319812030  TIP3      2872            0.0000000000
     25966      3008  TIP3      H2            -18.8515352756      -16.7167412323      -35.3175771741  TIP3      2872            0.0000000000
     25967      3009  TIP3      OH2           -18.6492456659      -19.5612310614      -36.5493600270  TIP3      2873            0.0000000000
     25968      3009  TIP3      H1            -18.6709257532      -20.3082662476      -37.1874176735  TIP3      2873            0.0000000000
     25969      3009  TIP3      H2            -18.7435825421      -20.0712389227      -35.7257747811  TIP3      2873            0.0000000000
     25970      3010  TIP3      OH2           -16.9574992465      -20.8417567134      -27.4823283066  TIP3      2874            0.0000000000
     25971      3010  TIP3      H1            -16.7033218232      -21.5540484674      -28.1099610058  TIP3      2874            0.0000000000
     25972      3010  TIP3      H2            -16.9068413038      -20.0765466824      -28.0955269615  TIP3      2874            0.0000000000
     25973      3011  TIP3      OH2           -22.3326203969      -24.1347391552      -38.0250927722  TIP3      2875            0.0000000000
     25974      3011  TIP3      H1            -23.1520432376      -23.6155640453      -37.8713992747  TIP3      2875            0.0000000000
     25975      3011  TIP3      H2            -21.8520771195      -23.4552087114      -38.5303772876  TIP3      2875            0.0000000000
     25976      3012  TIP3      OH2           -22.4046507610      -24.8195388300      -40.9920993936  TIP3      2876            0.0000000000
     25977      3012  TIP3      H1            -21.9221875028      -24.6015070906      -40.1814718750  TIP3      2876            0.0000000000
     25978      3012  TIP3      H2            -22.2248106470      -25.7671826048      -41.0631637864  TIP3      2876            0.0000000000
     25979      3013  TIP3      OH2           -14.8650827156      -24.3130527323      -29.6565146260  TIP3      2877            0.0000000000
     25980      3013  TIP3      H1            -15.5057221693      -23.5876369697      -29.7416814686  TIP3      2877            0.0000000000
     25981      3013  TIP3      H2            -14.3927169678      -24.2286289261      -30.5150941086  TIP3      2877            0.0000000000
     25982      3014  TIP3      OH2           -18.5959283739      -24.2854321190      -36.8055132204  TIP3      2878            0.0000000000
     25983      3014  TIP3      H1            -19.2869046891      -23.9079506523      -36.2066947973  TIP3      2878            0.0000000000
     25984      3014  TIP3      H2            -17.9689610302      -24.6651756270      -36.1583333193  TIP3      2878            0.0000000000
     25985      3015  TIP3      OH2           -19.6226336598      -26.1240368096      -27.2052554401  TIP3      2879            0.0000000000
     25986      3015  TIP3      H1            -19.6468918129      -25.5843359772      -26.3911892052  TIP3      2879            0.0000000000
     25987      3015  TIP3      H2            -19.8903074178      -25.4917617708      -27.8976806840  TIP3      2879            0.0000000000
     25988      3016  TIP3      OH2           -27.4029239745      -23.2186997209      -34.9079357228  TIP3      2880            0.0000000000
     25989      3016  TIP3      H1            -27.5760373593      -23.6359707046      -35.7836432184  TIP3      2880            0.0000000000
     25990      3016  TIP3      H2            -26.8455252036      -23.8960855932      -34.4743970023  TIP3      2880            0.0000000000
     25991      3017  TIP3      OH2           -26.0430811558      -19.8519213318      -32.5728427356  TIP3      2881            0.0000000000
     25992      3017  TIP3      H1            -25.8989627744      -19.8847164285      -33.5369753621  TIP3      2881            0.0000000000
     25993      3017  TIP3      H2            -25.3220693216      -20.3965374772      -32.1777477516  TIP3      2881            0.0000000000
     25994      3018  TIP3      OH2           -27.3464400193      -24.7823762948      -31.4267042798  TIP3      2882            0.0000000000
     25995      3018  TIP3      H1            -26.8280506259      -24.7477592157      -32.2605574217  TIP3      2882            0.0000000000
     25996      3018  TIP3      H2            -27.0808955599      -23.9380654496      -30.9879147018  TIP3      2882            0.0000000000
     25997      3019  TIP3      OH2           -20.3766759550      -18.8021604916      -30.9021432622  TIP3      2883            0.0000000000
     25998      3019  TIP3      H1            -20.3403372344      -18.0467527975      -30.2753981157  TIP3      2883            0.0000000000
     25999      3019  TIP3      H2            -20.9163876626      -19.4447974464      -30.3910585870  TIP3      2883            0.0000000000
     26000      3020  TIP3      OH2           -26.1051926154      -20.3411675235      -26.8750321285  TIP3      2884            0.0000000000
     26001      3020  TIP3      H1            -26.7850570424      -19.7072206384      -26.5478494539  TIP3      2884            0.0000000000
     26002      3020  TIP3      H2            -26.4977057418      -20.5513111838      -27.7514038077  TIP3      2884            0.0000000000
     26003      3021  TIP3      OH2           -19.7472124257      -24.6192411075      -39.1303246521  TIP3      2885            0.0000000000
     26004      3021  TIP3      H1            -19.2979624921      -24.4829192118      -38.2587891158  TIP3      2885            0.0000000000
     26005      3021  TIP3      H2            -19.2790238484      -24.0017327545      -39.7300288066  TIP3      2885            0.0000000000
     26006      3022  TIP3      OH2           -28.8342936638      -23.8758206646      -27.8741643077  TIP3      2886            0.0000000000
     26007      3022  TIP3      H1            -29.0940675547      -22.9835142038      -27.6076562549  TIP3      2886            0.0000000000
     26008      3022  TIP3      H2            -29.7076287059      -24.2988635360      -28.0241124111  TIP3      2886            0.0000000000
     26009      3023  TIP3      OH2           -22.9500784021      -18.4184307454      -36.3091212162  TIP3      2887            0.0000000000
     26010      3023  TIP3      H1            -22.4948834492      -17.8228928652      -35.7160530993  TIP3      2887            0.0000000000
     26011      3023  TIP3      H2            -23.2590055627      -17.8322755282      -37.0245115912  TIP3      2887            0.0000000000
     26012      3024  TIP3      OH2           -27.7234059053      -18.3126724867      -26.0511828021  TIP3      2888            0.0000000000
     26013      3024  TIP3      H1            -27.7930945938      -17.8985275590      -26.9380964372  TIP3      2888            0.0000000000
     26014      3024  TIP3      H2            -28.6695424903      -18.3843505219      -25.8214629800  TIP3      2888            0.0000000000
     26015      3025  TIP3      OH2           -16.3379528091      -32.5353727541      -39.2282332230  TIP3      2889            0.0000000000
     26016      3025  TIP3      H1            -17.0516366965      -31.8976270506      -39.0284185437  TIP3      2889            0.0000000000
     26017      3025  TIP3      H2            -15.6528198678      -31.9189156551      -39.5680913511  TIP3      2889            0.0000000000
     26018      3026  TIP3      OH2           -28.2998636824      -24.3788042678      -37.4584842795  TIP3      2890            0.0000000000
     26019      3026  TIP3      H1            -28.5542691798      -23.4832480277      -37.7789451316  TIP3      2890            0.0000000000
     26020      3026  TIP3      H2            -29.0108985425      -24.9057315025      -37.8308569310  TIP3      2890            0.0000000000
     26021      3027  TIP3      OH2           -14.8442082228      -18.6525894364      -41.0989912842  TIP3      2891            0.0000000000
     26022      3027  TIP3      H1            -14.9885315584      -17.8025250879      -40.6526933098  TIP3      2891            0.0000000000
     26023      3027  TIP3      H2            -14.1642155412      -18.4117440189      -41.7455531821  TIP3      2891            0.0000000000
     26024      3028  TIP3      OH2           -31.7171325290      -22.0504536884      -28.3546465755  TIP3      2892            0.0000000000
     26025      3028  TIP3      H1            -32.3234814771      -21.9709802778      -29.1116178345  TIP3      2892            0.0000000000
     26026      3028  TIP3      H2            -31.5668671490      -23.0188869915      -28.2938794158  TIP3      2892            0.0000000000
     26027      3029  TIP3      OH2           -32.5015787394      -18.8839919887      -31.9509014073  TIP3      2893            0.0000000000
     26028      3029  TIP3      H1            -31.6629464561      -19.3399628888      -32.1212028800  TIP3      2893            0.0000000000
     26029      3029  TIP3      H2            -32.2593752659      -18.3977666044      -31.1351073577  TIP3      2893            0.0000000000
     26030      3030  TIP3      OH2           -14.6288250535      -17.9334998937      -26.4987077954  TIP3      2894            0.0000000000
     26031      3030  TIP3      H1            -14.7182580807      -18.8930980201      -26.3075069620  TIP3      2894            0.0000000000
     26032      3030  TIP3      H2            -15.4896295991      -17.5915505769      -26.1615693942  TIP3      2894            0.0000000000
     26033      3031  TIP3      OH2           -23.2805021311      -19.1660514785      -27.3446786277  TIP3      2895            0.0000000000
     26034      3031  TIP3      H1            -23.2716015361      -18.2901186843      -26.9084646243  TIP3      2895            0.0000000000
     26035      3031  TIP3      H2            -24.1858015479      -19.4992716049      -27.1867861559  TIP3      2895            0.0000000000
     26036      3032  TIP3      OH2           -23.0017143389      -15.1646329375      -37.9207225575  TIP3      2896            0.0000000000
     26037      3032  TIP3      H1            -22.9396059286      -15.0663472129      -38.8944254703  TIP3      2896            0.0000000000
     26038      3032  TIP3      H2            -22.9755178138      -14.2412681559      -37.5991680072  TIP3      2896            0.0000000000
     26039      3033  TIP3      OH2           -28.5747118937      -16.4139610316      -35.7322154088  TIP3      2897            0.0000000000
     26040      3033  TIP3      H1            -28.4028257176      -16.7236928096      -34.8120325525  TIP3      2897            0.0000000000
     26041      3033  TIP3      H2            -29.1634339587      -17.1283690746      -36.0735168071  TIP3      2897            0.0000000000
     26042      3034  TIP3      OH2           -19.6342997025      -15.6218926387      -41.0240975208  TIP3      2898            0.0000000000
     26043      3034  TIP3      H1            -19.0348619304      -16.3404254118      -41.3008762098  TIP3      2898            0.0000000000
     26044      3034  TIP3      H2            -19.1463359295      -15.1832572995      -40.2895574344  TIP3      2898            0.0000000000
     26045      3035  TIP3      OH2           -20.1882622627      -15.5282322156      -37.3105351294  TIP3      2899            0.0000000000
     26046      3035  TIP3      H1            -21.1445714159      -15.6186449878      -37.4755050211  TIP3      2899            0.0000000000
     26047      3035  TIP3      H2            -20.0597402856      -16.0983105141      -36.5285197028  TIP3      2899            0.0000000000
     26048      3036  TIP3      OH2           -16.8745776015      -26.8706235071      -26.0827944566  TIP3      2900            0.0000000000
     26049      3036  TIP3      H1            -17.7693406157      -26.5679724449      -26.3140947054  TIP3      2900            0.0000000000
     26050      3036  TIP3      H2            -16.8837918595      -27.7967661195      -26.3845528311  TIP3      2900            0.0000000000
     26051      3037  TIP3      OH2           -29.7501408801      -20.4641484735      -27.4699810362  TIP3      2901            0.0000000000
     26052      3037  TIP3      H1            -29.5478866962      -20.7805300134      -26.5564593993  TIP3      2901            0.0000000000
     26053      3037  TIP3      H2            -30.5539390006      -21.0181171833      -27.6688747770  TIP3      2901            0.0000000000
     26054      3038  TIP3      OH2           -27.0031425624      -31.7220183775      -31.9207662826  TIP3      2902            0.0000000000
     26055      3038  TIP3      H1            -27.7406688830      -31.3465418940      -32.4307000706  TIP3      2902            0.0000000000
     26056      3038  TIP3      H2            -27.1582411110      -31.2363371213      -31.0825075794  TIP3      2902            0.0000000000
     26057      3039  TIP3      OH2           -22.6453003570      -31.4261547453      -28.5614159452  TIP3      2903            0.0000000000
     26058      3039  TIP3      H1            -22.0072440733      -31.9787718204      -28.0961681875  TIP3      2903            0.0000000000
     26059      3039  TIP3      H2            -23.4960243550      -31.7326883592      -28.2003025624  TIP3      2903            0.0000000000
     26060      3040  TIP3      OH2           -19.4636342767      -28.9644549026      -27.4094186403  TIP3      2904            0.0000000000
     26061      3040  TIP3      H1            -20.0527238479      -29.1909071713      -26.6522564110  TIP3      2904            0.0000000000
     26062      3040  TIP3      H2            -19.3680247873      -28.0010527997      -27.2731987777  TIP3      2904            0.0000000000
     26063      3041  TIP3      OH2           -18.5369841804      -23.2014331878      -41.1367509898  TIP3      2905            0.0000000000
     26064      3041  TIP3      H1            -18.8054369061      -23.0823592680      -42.0514774405  TIP3      2905            0.0000000000
     26065      3041  TIP3      H2            -17.5875047395      -22.9802625229      -41.1733929459  TIP3      2905            0.0000000000
     26066      3042  TIP3      OH2           -22.8349771757      -29.4952691648      -40.7823417295  TIP3      2906            0.0000000000
     26067      3042  TIP3      H1            -23.3813741203      -29.7847571771      -40.0277021614  TIP3      2906            0.0000000000
     26068      3042  TIP3      H2            -22.7127455228      -30.3199724834      -41.2587855296  TIP3      2906            0.0000000000
     26069      3043  TIP3      OH2           -27.0955580443      -27.1276546705      -30.3124833145  TIP3      2907            0.0000000000
     26070      3043  TIP3      H1            -27.7504927363      -27.0010454797      -29.5997178817  TIP3      2907            0.0000000000
     26071      3043  TIP3      H2            -27.0825831057      -26.2135912276      -30.6905200776  TIP3      2907            0.0000000000
     26072      3044  TIP3      OH2           -27.1015240343      -26.7649902069      -35.6741961395  TIP3      2908            0.0000000000
     26073      3044  TIP3      H1            -28.0791960935      -26.7601492329      -35.7420436677  TIP3      2908            0.0000000000
     26074      3044  TIP3      H2            -26.9028174134      -27.0116491392      -36.6075185160  TIP3      2908            0.0000000000
     26075      3045  TIP3      OH2           -21.2547631604      -26.1969164070      -36.7063065270  TIP3      2909            0.0000000000
     26076      3045  TIP3      H1            -21.6928045918      -25.4595061827      -37.2007926028  TIP3      2909            0.0000000000
     26077      3045  TIP3      H2            -20.5935900593      -26.4577442142      -37.3522626899  TIP3      2909            0.0000000000
     26078      3046  TIP3      OH2           -22.8096083063      -26.2418463610      -25.4647527151  TIP3      2910            0.0000000000
     26079      3046  TIP3      H1            -23.2196536052      -26.9923580415      -24.9858203686  TIP3      2910            0.0000000000
     26080      3046  TIP3      H2            -22.1131502637      -25.9393901707      -24.8628260534  TIP3      2910            0.0000000000
     26081      3047  TIP3      OH2           -21.2693172119      -26.8616085983      -33.4722332411  TIP3      2911            0.0000000000
     26082      3047  TIP3      H1            -21.0698777096      -25.9519206892      -33.7683183196  TIP3      2911            0.0000000000
     26083      3047  TIP3      H2            -20.8685547427      -27.3977936255      -34.1901437034  TIP3      2911            0.0000000000
     26084      3048  TIP3      OH2           -29.9150789561      -27.1603078333      -29.3301437492  TIP3      2912            0.0000000000
     26085      3048  TIP3      H1            -29.9288610306      -26.9422068624      -28.3889532037  TIP3      2912            0.0000000000
     26086      3048  TIP3      H2            -30.0316362276      -28.1396854616      -29.2935697942  TIP3      2912            0.0000000000
     26087      3049  TIP3      OH2           -26.2135895666      -29.3137180447      -41.5791330007  TIP3      2913            0.0000000000
     26088      3049  TIP3      H1            -26.5383777429      -29.8765758714      -40.8497547649  TIP3      2913            0.0000000000
     26089      3049  TIP3      H2            -26.5160239649      -28.4358592408      -41.2675566107  TIP3      2913            0.0000000000
     26090      3050  TIP3      OH2           -31.7107005205      -30.1328017270      -35.2610342118  TIP3      2914            0.0000000000
     26091      3050  TIP3      H1            -31.9689969222      -30.5606776506      -34.4246937248  TIP3      2914            0.0000000000
     26092      3050  TIP3      H2            -30.8614621298      -30.5712632784      -35.4418587464  TIP3      2914            0.0000000000
     26093      3051  TIP3      OH2           -31.0804350696      -29.3851223366      -39.2514308034  TIP3      2915            0.0000000000
     26094      3051  TIP3      H1            -30.4926657555      -29.0794063330      -39.9663811716  TIP3      2915            0.0000000000
     26095      3051  TIP3      H2            -31.8823714132      -28.8863479757      -39.4696884317  TIP3      2915            0.0000000000
     26096      3052  TIP3      OH2           -21.6098532457      -25.0078849268      -29.6817729167  TIP3      2916            0.0000000000
     26097      3052  TIP3      H1            -20.8773848977      -25.4475649354      -30.1592909230  TIP3      2916            0.0000000000
     26098      3052  TIP3      H2            -22.0749645079      -25.7715549989      -29.2653738941  TIP3      2916            0.0000000000
     26099      3053  TIP3      OH2           -24.2631837030      -29.5570261323      -34.7325728778  TIP3      2917            0.0000000000
     26100      3053  TIP3      H1            -25.2239007606      -29.6558030805      -34.7247309778  TIP3      2917            0.0000000000
     26101      3053  TIP3      H2            -24.0521423613      -29.6200370118      -33.7882130011  TIP3      2917            0.0000000000
     26102      3054  TIP3      OH2           -29.7219296745      -27.4065196054      -35.6987416490  TIP3      2918            0.0000000000
     26103      3054  TIP3      H1            -30.6237930253      -27.2929917124      -36.0501640287  TIP3      2918            0.0000000000
     26104      3054  TIP3      H2            -29.4806535558      -28.2814192348      -36.0481819361  TIP3      2918            0.0000000000
     26105      3055  TIP3      OH2           -26.8002624558      -28.0214483509      -38.0085650832  TIP3      2919            0.0000000000
     26106      3055  TIP3      H1            -26.0116823712      -28.5200289675      -38.3045127001  TIP3      2919            0.0000000000
     26107      3055  TIP3      H2            -26.9953757478      -27.5122360185      -38.8272204059  TIP3      2919            0.0000000000
     26108      3056  TIP3      OH2           -19.6599042782      -29.9338029311      -31.8301420724  TIP3      2920            0.0000000000
     26109      3056  TIP3      H1            -20.2428392534      -29.8670312950      -31.0485406874  TIP3      2920            0.0000000000
     26110      3056  TIP3      H2            -20.2833390295      -30.3284941457      -32.4751980880  TIP3      2920            0.0000000000
     26111      3057  TIP3      OH2           -27.1681068195      -27.0034196400      -40.4093392845  TIP3      2921            0.0000000000
     26112      3057  TIP3      H1            -28.0180269539      -26.8554496179      -40.8674570349  TIP3      2921            0.0000000000
     26113      3057  TIP3      H2            -26.5674541653      -26.3516255606      -40.8339263842  TIP3      2921            0.0000000000
     26114      3058  TIP3      OH2           -17.3759268628      -14.3069502888      -24.9348531881  TIP3      2922            0.0000000000
     26115      3058  TIP3      H1            -16.6016490104      -13.9616863121      -25.4021830745  TIP3      2922            0.0000000000
     26116      3058  TIP3      H2            -17.2710842902      -13.9399769197      -24.0277318844  TIP3      2922            0.0000000000
     26117      3059  TIP3      OH2           -29.7048244439      -21.7587908816      -25.0837671974  TIP3      2923            0.0000000000
     26118      3059  TIP3      H1            -29.4182438152      -22.2543134546      -24.3053748472  TIP3      2923            0.0000000000
     26119      3059  TIP3      H2            -30.6638486444      -21.9921303539      -25.0898190092  TIP3      2923            0.0000000000
     26120      3060  TIP3      OH2           -23.8914310274      -26.9679688301      -32.8673877063  TIP3      2924            0.0000000000
     26121      3060  TIP3      H1            -22.9473758727      -27.1756620893      -33.0865645588  TIP3      2924            0.0000000000
     26122      3060  TIP3      H2            -24.0522224945      -27.5556950569      -32.1068981287  TIP3      2924            0.0000000000
     26123      3061  TIP3      OH2           -28.3762903182      -30.3105621624      -36.4429637842  TIP3      2925            0.0000000000
     26124      3061  TIP3      H1            -29.1561670198      -30.8059177584      -36.7507585412  TIP3      2925            0.0000000000
     26125      3061  TIP3      H2            -27.6752380029      -30.9765597938      -36.5923729588  TIP3      2925            0.0000000000
     26126      3062  TIP3      OH2           -24.7438540376      -28.3574700080      -30.4614898349  TIP3      2926            0.0000000000
     26127      3062  TIP3      H1            -25.5776017454      -27.8287461886      -30.4733736230  TIP3      2926            0.0000000000
     26128      3062  TIP3      H2            -24.2101225048      -27.8525244630      -29.8254062311  TIP3      2926            0.0000000000
     26129      3063  TIP3      OH2           -24.0876815776      -22.1710339367      -38.2049116049  TIP3      2927            0.0000000000
     26130      3063  TIP3      H1            -24.8401038915      -22.6476808448      -38.6312296404  TIP3      2927            0.0000000000
     26131      3063  TIP3      H2            -24.5583705707      -21.8643414987      -37.3945935064  TIP3      2927            0.0000000000
     26132      3064  TIP3      OH2           -16.5633200297      -22.2011202214      -29.7115784398  TIP3      2928            0.0000000000
     26133      3064  TIP3      H1            -16.0269432048      -21.5960898201      -30.2855203546  TIP3      2928            0.0000000000
     26134      3064  TIP3      H2            -17.2828330212      -22.4259745175      -30.3337609825  TIP3      2928            0.0000000000
     26135      3065  TIP3      OH2           -20.3441365348      -29.4292595341      -39.7371131542  TIP3      2929            0.0000000000
     26136      3065  TIP3      H1            -21.1816452703      -29.2066130688      -40.1965455869  TIP3      2929            0.0000000000
     26137      3065  TIP3      H2            -19.8477557479      -28.5809509885      -39.8521564260  TIP3      2929            0.0000000000
     26138      3066  TIP3      OH2           -23.0000754766      -21.7924661463      -27.3132155588  TIP3      2930            0.0000000000
     26139      3066  TIP3      H1            -23.5051922986      -22.0394159089      -26.5250724844  TIP3      2930            0.0000000000
     26140      3066  TIP3      H2            -22.8119485330      -20.8430634123      -27.1477162785  TIP3      2930            0.0000000000
     26141      3067  TIP3      OH2           -19.0858295165      -27.2044554300      -39.0522679094  TIP3      2931            0.0000000000
     26142      3067  TIP3      H1            -18.7243939212      -27.0113803122      -38.1737798145  TIP3      2931            0.0000000000
     26143      3067  TIP3      H2            -19.1637757939      -26.3018255777      -39.4241269877  TIP3      2931            0.0000000000
     26144      3068  TIP3      OH2           -29.2132232362      -22.4152671910      -32.9345410413  TIP3      2932            0.0000000000
     26145      3068  TIP3      H1            -28.6100024269      -22.6744723840      -33.6614776515  TIP3      2932            0.0000000000
     26146      3068  TIP3      H2            -29.2927508734      -23.2168824925      -32.3830412636  TIP3      2932            0.0000000000
     26147      3069  TIP3      OH2           -22.0261705475      -20.8626298081      -39.3461424779  TIP3      2933            0.0000000000
     26148      3069  TIP3      H1            -22.4352440153      -19.9658439298      -39.2790639898  TIP3      2933            0.0000000000
     26149      3069  TIP3      H2            -22.7547720238      -21.4199276068      -38.9867722478  TIP3      2933            0.0000000000
     26150      3070  TIP3      OH2           -31.6228057528      -24.6490263632      -27.7574259482  TIP3      2934            0.0000000000
     26151      3070  TIP3      H1            -31.5038615278      -25.1093664424      -26.9057749531  TIP3      2934            0.0000000000
     26152      3070  TIP3      H2            -32.5995392189      -24.6649163759      -27.8254284824  TIP3      2934            0.0000000000
     26153      3071  TIP3      OH2           -25.0880102369      -24.6935223761      -25.8691505593  TIP3      2935            0.0000000000
     26154      3071  TIP3      H1            -25.6227426431      -25.2904824918      -26.4193975674  TIP3      2935            0.0000000000
     26155      3071  TIP3      H2            -24.2138881294      -25.1370348347      -25.8675945114  TIP3      2935            0.0000000000
     26156      3072  TIP3      OH2           -20.1808834498      -19.4204281701      -27.1244168361  TIP3      2936            0.0000000000
     26157      3072  TIP3      H1            -21.1032838867      -19.2578646426      -27.3951051243  TIP3      2936            0.0000000000
     26158      3072  TIP3      H2            -20.0464081298      -18.7810695497      -26.4035320154  TIP3      2936            0.0000000000
     26159      3073  TIP3      OH2           -15.0858984315      -26.8233321153      -38.4858501403  TIP3      2937            0.0000000000
     26160      3073  TIP3      H1            -15.3856006049      -27.2101922639      -39.3300074560  TIP3      2937            0.0000000000
     26161      3073  TIP3      H2            -14.6820106065      -26.0113809463      -38.8674221263  TIP3      2937            0.0000000000
     26162      3074  TIP3      OH2           -14.3548886365      -20.5606353348      -26.5241982706  TIP3      2938            0.0000000000
     26163      3074  TIP3      H1            -15.3096990518      -20.7221467295      -26.6919576388  TIP3      2938            0.0000000000
     26164      3074  TIP3      H2            -13.9837839115      -20.7864067535      -27.4050427417  TIP3      2938            0.0000000000
     26165      3075  TIP3      OH2           -16.4649705327      -18.4605480311      -38.3875858857  TIP3      2939            0.0000000000
     26166      3075  TIP3      H1            -17.0801072841      -19.0552986357      -37.9322379869  TIP3      2939            0.0000000000
     26167      3075  TIP3      H2            -16.5878253087      -18.7043108733      -39.3111278279  TIP3      2939            0.0000000000
     26168      3076  TIP3      OH2           -19.2621165246      -23.5111714377      -31.7242046594  TIP3      2940            0.0000000000
     26169      3076  TIP3      H1            -20.1914940082      -23.6897661726      -31.9588225232  TIP3      2940            0.0000000000
     26170      3076  TIP3      H2            -18.8097787927      -24.2379616883      -32.2005979924  TIP3      2940            0.0000000000
     26171      3077  TIP3      OH2           -26.5538839300      -19.1843983919      -35.2323142614  TIP3      2941            0.0000000000
     26172      3077  TIP3      H1            -26.2831219254      -18.2613146629      -35.3971094416  TIP3      2941            0.0000000000
     26173      3077  TIP3      H2            -27.3020331620      -19.2685192104      -35.8380847779  TIP3      2941            0.0000000000
     26174      3078  TIP3      OH2           -31.3863965999      -23.9847919840      -40.3385525517  TIP3      2942            0.0000000000
     26175      3078  TIP3      H1            -30.7574708559      -23.5035103078      -40.9059380924  TIP3      2942            0.0000000000
     26176      3078  TIP3      H2            -31.6537099217      -23.2584397087      -39.7508672053  TIP3      2942            0.0000000000
     26177      3079  TIP3      OH2           -25.5103641801      -21.5630359670      -36.0313148262  TIP3      2943            0.0000000000
     26178      3079  TIP3      H1            -25.7286214040      -20.6527542189      -35.7367062482  TIP3      2943            0.0000000000
     26179      3079  TIP3      H2            -26.0733205127      -22.1207698485      -35.4567900638  TIP3      2943            0.0000000000
     26180      3080  TIP3      OH2           -24.9349888286      -17.0135613478      -28.9591106092  TIP3      2944            0.0000000000
     26181      3080  TIP3      H1            -24.1891678672      -16.5293907771      -29.3703184924  TIP3      2944            0.0000000000
     26182      3080  TIP3      H2            -24.4666516188      -17.3736719749      -28.1827442298  TIP3      2944            0.0000000000
     26183      3081  TIP3      OH2           -26.0245884470      -16.7224184612      -36.6019430919  TIP3      2945            0.0000000000
     26184      3081  TIP3      H1            -26.9674481160      -16.5344821614      -36.3883106185  TIP3      2945            0.0000000000
     26185      3081  TIP3      H2            -25.6158111387      -15.9311998694      -36.1871922664  TIP3      2945            0.0000000000
     26186      3082  TIP3      OH2           -21.7185227786      -21.1805288434      -29.9326122262  TIP3      2946            0.0000000000
     26187      3082  TIP3      H1            -21.9605715788      -21.5891141581      -29.0712955494  TIP3      2946            0.0000000000
     26188      3082  TIP3      H2            -21.2226648343      -21.9018000819      -30.3624004469  TIP3      2946            0.0000000000
     26189      3083  TIP3      OH2           -18.8430897179      -20.0278511429      -40.3769927492  TIP3      2947            0.0000000000
     26190      3083  TIP3      H1            -18.5702174110      -20.5188899979      -39.5736055916  TIP3      2947            0.0000000000
     26191      3083  TIP3      H2            -19.6709516553      -20.4841614786      -40.5779731893  TIP3      2947            0.0000000000
     26192      3084  TIP3      OH2           -18.5578579571      -16.5889176511      -27.7119742165  TIP3      2948            0.0000000000
     26193      3084  TIP3      H1            -19.3685199458      -17.0887960647      -27.9400125520  TIP3      2948            0.0000000000
     26194      3084  TIP3      H2            -18.4842418893      -16.0116017415      -28.5035943043  TIP3      2948            0.0000000000
     26195      3085  TIP3      OH2           -14.5523937517      -15.6983429316      -40.5381383773  TIP3      2949            0.0000000000
     26196      3085  TIP3      H1            -13.9840421916      -14.9820283052      -40.8614097312  TIP3      2949            0.0000000000
     26197      3085  TIP3      H2            -15.1465224855      -15.2090806254      -39.9209683152  TIP3      2949            0.0000000000
     26198      3086  TIP3      OH2           -30.4512781672      -29.6565052170      -28.6716094142  TIP3      2950            0.0000000000
     26199      3086  TIP3      H1            -30.8309909027      -29.1653930650      -27.8969457889  TIP3      2950            0.0000000000
     26200      3086  TIP3      H2            -31.0908482444      -30.4050016321      -28.6644285552  TIP3      2950            0.0000000000
     26201      3087  TIP3      OH2           -18.1547347747      -21.6801439717      -38.1482281369  TIP3      2951            0.0000000000
     26202      3087  TIP3      H1            -18.2650677573      -22.5951475491      -37.8203799981  TIP3      2951            0.0000000000
     26203      3087  TIP3      H2            -17.1818137200      -21.6447555391      -38.2610751213  TIP3      2951            0.0000000000
     26204      3088  TIP3      OH2           -30.9102194538      -18.1310841795      -29.7091253935  TIP3      2952            0.0000000000
     26205      3088  TIP3      H1            -30.1734452328      -18.6632808104      -29.3699268275  TIP3      2952            0.0000000000
     26206      3088  TIP3      H2            -30.7362337544      -17.2765907255      -29.2880115627  TIP3      2952            0.0000000000
     26207      3089  TIP3      OH2           -26.0410724926      -19.6791937607      -39.5746453333  TIP3      2953            0.0000000000
     26208      3089  TIP3      H1            -25.6147474887      -20.0785920788      -38.8081126551  TIP3      2953            0.0000000000
     26209      3089  TIP3      H2            -25.8566589688      -18.7235837766      -39.4364454276  TIP3      2953            0.0000000000
     26210      3090  TIP3      OH2           -28.9554974309      -21.9855213191      -38.9086630320  TIP3      2954            0.0000000000
     26211      3090  TIP3      H1            -29.6808225914      -21.5471631940      -38.4154666740  TIP3      2954            0.0000000000
     26212      3090  TIP3      H2            -28.7581630985      -21.3114653623      -39.5819441471  TIP3      2954            0.0000000000
     26213      3091  TIP3      OH2           -21.2979392876      -29.2716893765      -29.3451948215  TIP3      2955            0.0000000000
     26214      3091  TIP3      H1            -20.5734858807      -29.2950567055      -28.6868219776  TIP3      2955            0.0000000000
     26215      3091  TIP3      H2            -21.8407732880      -30.0336454352      -29.0356776231  TIP3      2955            0.0000000000
     26216      3092  TIP3      OH2           -20.9457854704      -29.9119411383      -37.1887048592  TIP3      2956            0.0000000000
     26217      3092  TIP3      H1            -20.7688964293      -29.6067322526      -38.1090667579  TIP3      2956            0.0000000000
     26218      3092  TIP3      H2            -21.5732596772      -29.2201315075      -36.8897280883  TIP3      2956            0.0000000000
     26219      3093  TIP3      OH2           -22.9991983593      -18.3145707678      -39.2658060691  TIP3      2957            0.0000000000
     26220      3093  TIP3      H1            -23.8580766550      -17.8576719349      -39.3381019278  TIP3      2957            0.0000000000
     26221      3093  TIP3      H2            -22.4935565177      -17.8750213386      -39.9638338589  TIP3      2957            0.0000000000
     26222      3094  TIP3      OH2           -23.0251125220      -28.3333004496      -36.7375803658  TIP3      2958            0.0000000000
     26223      3094  TIP3      H1            -22.6898959926      -27.4173304721      -36.6512651636  TIP3      2958            0.0000000000
     26224      3094  TIP3      H2            -23.4811070105      -28.4861613458      -35.8754089777  TIP3      2958            0.0000000000
     26225      3095  TIP3      OH2           -22.7327199898      -27.0321001699      -28.3213417363  TIP3      2959            0.0000000000
     26226      3095  TIP3      H1            -22.6831463388      -26.8346188206      -27.3571125326  TIP3      2959            0.0000000000
     26227      3095  TIP3      H2            -22.4452822500      -27.9631251629      -28.4009452280  TIP3      2959            0.0000000000
     26228      3096  TIP3      OH2           -22.7449427345      -31.7058066144      -36.1467887490  TIP3      2960            0.0000000000
     26229      3096  TIP3      H1            -23.3741261045      -31.0662139131      -35.7712815676  TIP3      2960            0.0000000000
     26230      3096  TIP3      H2            -22.0964883451      -31.0899428348      -36.5429354761  TIP3      2960            0.0000000000
     26231      3097  TIP3      OH2           -25.4903589468      -17.0472650424      -39.3617175293  TIP3      2961            0.0000000000
     26232      3097  TIP3      H1            -25.1171114818      -16.2255878161      -39.7379318150  TIP3      2961            0.0000000000
     26233      3097  TIP3      H2            -25.7711391969      -16.7323152432      -38.4718791066  TIP3      2961            0.0000000000
     26234      3098  TIP3      OH2           -27.5960692580      -30.5969335025      -39.3473916662  TIP3      2962            0.0000000000
     26235      3098  TIP3      H1            -27.6677951946      -29.8593029211      -38.7072181804  TIP3      2962            0.0000000000
     26236      3098  TIP3      H2            -26.8745388108      -31.1096627543      -38.9465637035  TIP3      2962            0.0000000000
     26237      3099  TIP3      OH2           -16.9367737921      -29.6607342750      -26.8996827431  TIP3      2963            0.0000000000
     26238      3099  TIP3      H1            -17.9130326299      -29.6460876300      -27.0044199959  TIP3      2963            0.0000000000
     26239      3099  TIP3      H2            -16.7268099478      -29.7714232713      -27.8547303449  TIP3      2963            0.0000000000
     26240      3100  TIP3      OH2           -18.4794314667      -25.8538912263      -33.0301547123  TIP3      2964            0.0000000000
     26241      3100  TIP3      H1            -19.0747589330      -26.2138763220      -32.3342857771  TIP3      2964            0.0000000000
     26242      3100  TIP3      H2            -17.6142211138      -26.1283542716      -32.6248392123  TIP3      2964            0.0000000000
     26243      3101  TIP3      OH2           -28.8500528463      -19.7849452706      -40.6877836413  TIP3      2965            0.0000000000
     26244      3101  TIP3      H1            -27.9411860378      -19.5289430431      -40.4640156868  TIP3      2965            0.0000000000
     26245      3101  TIP3      H2            -28.7457512302      -20.1001470815      -41.5958907501  TIP3      2965            0.0000000000
     26246      3102  TIP3      OH2           -29.9962338209      -27.1284027321      -41.2650289041  TIP3      2966            0.0000000000
     26247      3102  TIP3      H1            -30.5398633428      -26.3874359357      -40.9650466871  TIP3      2966            0.0000000000
     26248      3102  TIP3      H2            -30.1861054893      -27.1402955840      -42.2165789450  TIP3      2966            0.0000000000
     26249      3103  TIP3      OH2           -17.4007792394      -16.6503375094      -31.6620276708  TIP3      2967            0.0000000000
     26250      3103  TIP3      H1            -17.2719867179      -16.0857132177      -32.4408805005  TIP3      2967            0.0000000000
     26251      3103  TIP3      H2            -16.4611169661      -16.7432288875      -31.3871798306  TIP3      2967            0.0000000000
     26252      3104  TIP3      OH2           -29.8632270177      -32.1005516648      -32.7954058430  TIP3      2968            0.0000000000
     26253      3104  TIP3      H1            -29.3823814373      -32.6508196944      -33.4398184345  TIP3      2968            0.0000000000
     26254      3104  TIP3      H2            -30.0979251778      -32.8103637915      -32.1592214976  TIP3      2968            0.0000000000
     26255      3105  TIP3      OH2           -30.4173788950      -18.2183863822      -36.3732824337  TIP3      2969            0.0000000000
     26256      3105  TIP3      H1            -31.1258739668      -17.7188306423      -35.9371732147  TIP3      2969            0.0000000000
     26257      3105  TIP3      H2            -30.4998960617      -17.8833001290      -37.2928002955  TIP3      2969            0.0000000000
     26258      3106  TIP3      OH2           -32.3010118588      -15.6999352930      -25.5085906646  TIP3      2970            0.0000000000
     26259      3106  TIP3      H1            -31.3454797237      -15.8156509996      -25.6197452851  TIP3      2970            0.0000000000
     26260      3106  TIP3      H2            -32.5949659163      -16.6233360519      -25.4066674674  TIP3      2970            0.0000000000
     26261      3107  TIP3      OH2           -26.6912906882      -16.7306185346      -23.7968041551  TIP3      2971            0.0000000000
     26262      3107  TIP3      H1            -25.8995603501      -17.1545049066      -23.4478475670  TIP3      2971            0.0000000000
     26263      3107  TIP3      H2            -26.9251082780      -17.3224870832      -24.5368971345  TIP3      2971            0.0000000000
     26264      3108  TIP3      OH2           -20.8020292292      -18.1358996801      -24.8121606410  TIP3      2972            0.0000000000
     26265      3108  TIP3      H1            -21.1423793677      -19.0476687717      -24.6152744763  TIP3      2972            0.0000000000
     26266      3108  TIP3      H2            -19.9717621918      -18.1262279910      -24.2870708164  TIP3      2972            0.0000000000
     26267      3109  TIP3      OH2           -17.9275357279      -17.8852202173      -42.2649922642  TIP3      2973            0.0000000000
     26268      3109  TIP3      H1            -18.1980700718      -18.5457101589      -41.5943458475  TIP3      2973            0.0000000000
     26269      3109  TIP3      H2            -17.1076255363      -18.2793654205      -42.6098314021  TIP3      2973            0.0000000000
     26270      3110  TIP3      OH2           -32.2981877105      -22.1929923542      -24.7530183289  TIP3      2974            0.0000000000
     26271      3110  TIP3      H1            -32.4662064759      -23.1122403761      -24.5075264609  TIP3      2974            0.0000000000
     26272      3110  TIP3      H2            -33.1855229459      -21.9112402372      -25.0534683657  TIP3      2974            0.0000000000
     26273      3111  TIP3      OH2           -27.0829104028      -21.3583575878      -42.4393202135  TIP3      2975            0.0000000000
     26274      3111  TIP3      H1            -26.8992655580      -21.6518822234      -41.5299451735  TIP3      2975            0.0000000000
     26275      3111  TIP3      H2            -26.7911180466      -22.1439376912      -42.9599505277  TIP3      2975            0.0000000000
     26276      3112  TIP3      OH2           -25.0071839467      -22.1136314493      -25.1264219879  TIP3      2976            0.0000000000
     26277      3112  TIP3      H1            -25.2618081745      -21.6051956806      -25.9300853644  TIP3      2976            0.0000000000
     26278      3112  TIP3      H2            -25.3041782405      -23.0290939198      -25.3293297290  TIP3      2976            0.0000000000
     26279      3113  TIP3      OH2           -19.5357977290      -22.0310299094      -27.4488262587  TIP3      2977            0.0000000000
     26280      3113  TIP3      H1            -18.6121371945      -21.7396988565      -27.5547290173  TIP3      2977            0.0000000000
     26281      3113  TIP3      H2            -19.9236165365      -21.1458478313      -27.2712922591  TIP3      2977            0.0000000000
     26282      3114  TIP3      OH2           -30.7936141324      -25.7965584411      -25.0437064933  TIP3      2978            0.0000000000
     26283      3114  TIP3      H1            -30.0075790178      -26.3462248672      -24.8463667310  TIP3      2978            0.0000000000
     26284      3114  TIP3      H2            -30.6030773304      -25.0434683127      -24.4521412420  TIP3      2978            0.0000000000
     26285      3115  TIP3      OH2           -26.0529910145      -23.6328683385      -39.2362171436  TIP3      2979            0.0000000000
     26286      3115  TIP3      H1            -26.8554150811      -23.9827945267      -38.8105683719  TIP3      2979            0.0000000000
     26287      3115  TIP3      H2            -25.8162421062      -24.3157018238      -39.9013424081  TIP3      2979            0.0000000000
     26288      3116  TIP3      OH2           -27.0723507174      -25.8175647700      -27.8667694169  TIP3      2980            0.0000000000
     26289      3116  TIP3      H1            -27.6347189369      -25.0372919183      -27.6729041402  TIP3      2980            0.0000000000
     26290      3116  TIP3      H2            -26.3730468943      -25.4008050456      -28.4236604949  TIP3      2980            0.0000000000
     26291      3117  TIP3      OH2           -25.2346634513      -25.4059040627      -41.2113213993  TIP3      2981            0.0000000000
     26292      3117  TIP3      H1            -25.2062889213      -25.3976317310      -42.1818815745  TIP3      2981            0.0000000000
     26293      3117  TIP3      H2            -24.2805218309      -25.4157073110      -40.9900956754  TIP3      2981            0.0000000000
     26294      3118  TIP3      OH2           -21.4479925155      -22.9792739457      -24.1212251247  TIP3      2982            0.0000000000
     26295      3118  TIP3      H1            -20.5668236267      -23.0922762209      -24.5357610388  TIP3      2982            0.0000000000
     26296      3118  TIP3      H2            -21.5220464535      -23.8099274315      -23.6287808614  TIP3      2982            0.0000000000
     26297      3119  TIP3      OH2           -15.9840062822      -22.8901538184      -42.4064605440  TIP3      2983            0.0000000000
     26298      3119  TIP3      H1            -16.5029248609      -22.7851341081      -43.2212708487  TIP3      2983            0.0000000000
     26299      3119  TIP3      H2            -15.6305615974      -21.9959499060      -42.2868332233  TIP3      2983            0.0000000000
     26300      3120  TIP3      OH2           -26.9782203376      -27.9296212418      -26.3316174604  TIP3      2984            0.0000000000
     26301      3120  TIP3      H1            -26.7292553564      -28.5924370107      -27.0090014207  TIP3      2984            0.0000000000
     26302      3120  TIP3      H2            -27.1215568442      -27.1416588131      -26.9206026252  TIP3      2984            0.0000000000
     26303      3121  TIP3      OH2           -26.2267222907      -29.7444905442      -28.5457910126  TIP3      2985            0.0000000000
     26304      3121  TIP3      H1            -25.5922463159      -29.3955015324      -29.2166909507  TIP3      2985            0.0000000000
     26305      3121  TIP3      H2            -27.0570939079      -29.7056478423      -29.0582048035  TIP3      2985            0.0000000000
     26306      3122  TIP3      OH2           -25.0486544798      -24.5913782669      -29.1849722144  TIP3      2986            0.0000000000
     26307      3122  TIP3      H1            -24.0929250269      -24.4282136937      -29.0964939820  TIP3      2986            0.0000000000
     26308      3122  TIP3      H2            -25.4110731287      -23.7191317646      -29.4460304410  TIP3      2986            0.0000000000
     26309      3123  TIP3      OH2           -19.0930954819      -23.8586978819      -25.4104398966  TIP3      2987            0.0000000000
     26310      3123  TIP3      H1            -19.3649598501      -23.2675747812      -26.1543662864  TIP3      2987            0.0000000000
     26311      3123  TIP3      H2            -18.1224010472      -23.8318201767      -25.4532033771  TIP3      2987            0.0000000000
     26312      3124  TIP3      OH2           -28.5360709942      -27.0601114693      -24.3511334679  TIP3      2988            0.0000000000
     26313      3124  TIP3      H1            -28.9481896378      -27.9381950345      -24.1826589405  TIP3      2988            0.0000000000
     26314      3124  TIP3      H2            -27.9486425787      -27.3110950866      -25.1038585760  TIP3      2988            0.0000000000
     26315      3125  TIP3      OH2           -25.6977165074      -32.3381299526      -28.4853613329  TIP3      2989            0.0000000000
     26316      3125  TIP3      H1            -25.9138216199      -31.3768709264      -28.4911417045  TIP3      2989            0.0000000000
     26317      3125  TIP3      H2            -26.5698092225      -32.7642381378      -28.6119597979  TIP3      2989            0.0000000000
     26318      3126  TIP3      OH2           -24.6121982175      -28.0636763181      -24.4911534531  TIP3      2990            0.0000000000
     26319      3126  TIP3      H1            -24.8604240175      -27.2838787194      -23.9462838435  TIP3      2990            0.0000000000
     26320      3126  TIP3      H2            -25.3711503997      -28.1328211219      -25.0947567206  TIP3      2990            0.0000000000
     26321      3127  TIP3      OH2           -21.3796316879      -29.4036382458      -25.6039514608  TIP3      2991            0.0000000000
     26322      3127  TIP3      H1            -22.3116300254      -29.6393671401      -25.4887551383  TIP3      2991            0.0000000000
     26323      3127  TIP3      H2            -21.1671439634      -29.0649700457      -24.7187484251  TIP3      2991            0.0000000000
     26324      3128  TIP3      OH2           -19.2370716196      -30.7758089875      -23.7230057970  TIP3      2992            0.0000000000
     26325      3128  TIP3      H1            -19.7021512675      -31.6125767543      -23.5395268057  TIP3      2992            0.0000000000
     26326      3128  TIP3      H2            -19.6892100397      -30.1314150597      -23.1331326962  TIP3      2992            0.0000000000
     26327      3129  TIP3      OH2           -30.2966783382      -29.2612567736      -24.1638606618  TIP3      2993            0.0000000000
     26328      3129  TIP3      H1            -30.1607203024      -30.1650619306      -24.5407106180  TIP3      2993            0.0000000000
     26329      3129  TIP3      H2            -31.0060306790      -29.4490260787      -23.5202399040  TIP3      2993            0.0000000000
     26330      3130  TIP3      OH2           -24.8339689510      -32.1273613090      -25.9546593162  TIP3      2994            0.0000000000
     26331      3130  TIP3      H1            -25.0015822883      -33.0349688147      -25.6483864317  TIP3      2994            0.0000000000
     26332      3130  TIP3      H2            -25.1685765518      -32.2080457172      -26.8757671893  TIP3      2994            0.0000000000
     26333      3131  TIP3      OH2           -24.9161375872      -31.7166207883      -23.2491623376  TIP3      2995            0.0000000000
     26334      3131  TIP3      H1            -24.5586260859      -32.1461092263      -24.0389751351  TIP3      2995            0.0000000000
     26335      3131  TIP3      H2            -25.1962482134      -30.8996370943      -23.6746962261  TIP3      2995            0.0000000000
     26336      3132  TIP3      OH2           -24.9677796822      -14.5379538857      -40.7664339199  TIP3      2996            0.0000000000
     26337      3132  TIP3      H1            -23.9977177659      -14.6090655173      -40.6710311572  TIP3      2996            0.0000000000
     26338      3132  TIP3      H2            -25.0641632861      -14.5867367245      -41.7387768791  TIP3      2996            0.0000000000
     26339      3133  TIP3      OH2           -31.5214241177      -21.2467059617      -41.4342718370  TIP3      2997            0.0000000000
     26340      3133  TIP3      H1            -31.2849596175      -20.9355148451      -40.5417315186  TIP3      2997            0.0000000000
     26341      3133  TIP3      H2            -32.2549562094      -20.6643082549      -41.6734864665  TIP3      2997            0.0000000000
     26342      3134  TIP3      OH2            33.2957742355      -14.9961391780      -36.5218721938  TIP3      2998            0.0000000000
     26343      3134  TIP3      H1             32.4353905410      -15.3825183462      -36.3276463150  TIP3      2998            0.0000000000
     26344      3134  TIP3      H2             33.8170260538      -15.3281391031      -35.7715003561  TIP3      2998            0.0000000000
     26345      3135  TIP3      OH2           -31.8331407373      -16.4632354113      -34.3793449162  TIP3      2999            0.0000000000
     26346      3135  TIP3      H1            -32.4142368529      -17.1652660827      -34.0451358805  TIP3      2999            0.0000000000
     26347      3135  TIP3      H2            -31.5241340053      -16.0382064857      -33.5558529392  TIP3      2999            0.0000000000
     26348      3136  TIP3      OH2           -14.7674344052      -16.5480700122      -31.2789840697  TIP3      3000            0.0000000000
     26349      3136  TIP3      H1            -14.4346641560      -15.9436851166      -30.5939764833  TIP3      3000            0.0000000000
     26350      3136  TIP3      H2            -14.3581331116      -16.1624111544      -32.0712946172  TIP3      3000            0.0000000000
     26351      3137  TIP3      OH2           -15.3270959695      -16.2398512614      -28.4874041246  TIP3      3001            0.0000000000
     26352      3137  TIP3      H1            -15.5865039159      -16.9965830603      -29.0476872952  TIP3      3001            0.0000000000
     26353      3137  TIP3      H2            -14.8923872351      -16.7337881630      -27.7604833911  TIP3      3001            0.0000000000
     26354      3138  TIP3      OH2           -16.0843260010      -20.4411279879      -23.5776927413  TIP3      3002            0.0000000000
     26355      3138  TIP3      H1            -17.0433012802      -20.3838084525      -23.4446024855  TIP3      3002            0.0000000000
     26356      3138  TIP3      H2            -15.8152219613      -19.5226422824      -23.3479901789  TIP3      3002            0.0000000000
     26357      3139  TIP3      OH2           -15.4876046061      -22.1314101256      -38.4206069557  TIP3      3003            0.0000000000
     26358      3139  TIP3      H1            -14.6742769498      -21.6119758168      -38.2236076907  TIP3      3003            0.0000000000
     26359      3139  TIP3      H2            -15.4866985584      -22.7433699746      -37.6536641410  TIP3      3003            0.0000000000
     26360      3140  TIP3      OH2           -15.0430960472      -23.8760533141      -36.2387736141  TIP3      3004            0.0000000000
     26361      3140  TIP3      H1            -15.7606404211      -24.4375621344      -35.8620729419  TIP3      3004            0.0000000000
     26362      3140  TIP3      H2            -14.4738038156      -23.8518670986      -35.4402723317  TIP3      3004            0.0000000000
     26363      3141  TIP3      OH2           -14.9213862299      -21.2132548924      -31.5145479203  TIP3      3005            0.0000000000
     26364      3141  TIP3      H1            -14.3576846770      -21.9701881191      -31.7862463204  TIP3      3005            0.0000000000
     26365      3141  TIP3      H2            -14.4081552419      -20.4411228609      -31.8082726698  TIP3      3005            0.0000000000
     26366      3142  TIP3      OH2           -16.6704827221      -18.6159024963      -29.1264935065  TIP3      3006            0.0000000000
     26367      3142  TIP3      H1            -17.2834726050      -17.9531464783      -28.7646448189  TIP3      3006            0.0000000000
     26368      3142  TIP3      H2            -17.0926064685      -18.8983493136      -29.9703618126  TIP3      3006            0.0000000000
     26369      3143  TIP3      OH2           -14.3184302317      -24.5059612052      -39.9145657928  TIP3      3007            0.0000000000
     26370      3143  TIP3      H1            -15.0398971573      -24.4674925494      -40.5637298777  TIP3      3007            0.0000000000
     26371      3143  TIP3      H2            -14.5451230707      -23.7402565006      -39.3539844018  TIP3      3007            0.0000000000
     26372      3144  TIP3      OH2           -15.3265574357      -26.9639912791      -41.5094648964  TIP3      3008            0.0000000000
     26373      3144  TIP3      H1            -15.2042391423      -26.3241374494      -42.2500358880  TIP3      3008            0.0000000000
     26374      3144  TIP3      H2            -16.0116196764      -27.5417152526      -41.8697555268  TIP3      3008            0.0000000000
     26375      3145  TIP3      OH2           -16.7354183391      -25.5511104014      -35.0720042017  TIP3      3009            0.0000000000
     26376      3145  TIP3      H1            -17.0403135870      -26.4533478692      -35.2880085015  TIP3      3009            0.0000000000
     26377      3145  TIP3      H2            -17.2142382379      -25.4413278983      -34.2276188218  TIP3      3009            0.0000000000
     26378      3146  TIP3      OH2           -32.4656798117      -24.0902293245      -31.5194321735  TIP3      3010            0.0000000000
     26379      3146  TIP3      H1            -32.3580713988      -24.0979528347      -32.4934400304  TIP3      3010            0.0000000000
     26380      3146  TIP3      H2            -31.5084580936      -24.1103986081      -31.2749400852  TIP3      3010            0.0000000000
     26381      3147  TIP3      OH2           -15.9066927468      -23.7921386799      -26.1881117210  TIP3      3011            0.0000000000
     26382      3147  TIP3      H1            -15.5222959068      -24.6217249863      -25.8021976833  TIP3      3011            0.0000000000
     26383      3147  TIP3      H2            -15.1771898266      -23.5705801878      -26.7955981224  TIP3      3011            0.0000000000
     26384      3148  TIP3      OH2           -14.4990538750      -25.9307634294      -25.4664277603  TIP3      3012            0.0000000000
     26385      3148  TIP3      H1            -15.3028662815      -26.4829403824      -25.6131573625  TIP3      3012            0.0000000000
     26386      3148  TIP3      H2            -13.8371611050      -26.6526686943      -25.3649760471  TIP3      3012            0.0000000000
     26387      3149  TIP3      OH2           -17.5628739678      -27.5080286497      -36.6577428483  TIP3      3013            0.0000000000
     26388      3149  TIP3      H1            -17.2538193018      -28.4290490811      -36.8370467933  TIP3      3013            0.0000000000
     26389      3149  TIP3      H2            -16.9156048229      -27.0075004680      -37.1849833707  TIP3      3013            0.0000000000
     26390      3150  TIP3      OH2           -16.3899594872      -26.9587142805      -31.9060996909  TIP3      3014            0.0000000000
     26391      3150  TIP3      H1            -15.4321427437      -26.8918324477      -31.6641830924  TIP3      3014            0.0000000000
     26392      3150  TIP3      H2            -16.6852603698      -27.5655584338      -31.2113785543  TIP3      3014            0.0000000000
     26393      3151  TIP3      OH2           -16.2143570326      -26.5768956777      -29.0410864798  TIP3      3015            0.0000000000
     26394      3151  TIP3      H1            -17.0318420535      -26.2059024067      -28.6869441951  TIP3      3015            0.0000000000
     26395      3151  TIP3      H2            -15.7612120901      -25.7811587875      -29.4003276393  TIP3      3015            0.0000000000
     26396      3152  TIP3      OH2           -31.5949927625      -28.4516458426      -26.5715715550  TIP3      3016            0.0000000000
     26397      3152  TIP3      H1            -31.0331629603      -28.5357258574      -25.7749323743  TIP3      3016            0.0000000000
     26398      3152  TIP3      H2            -32.4782700052      -28.3794874481      -26.1720385536  TIP3      3016            0.0000000000
     26399      3153  TIP3      OH2           -16.5632600027      -29.9285277329      -36.9673990305  TIP3      3017            0.0000000000
     26400      3153  TIP3      H1            -16.2394780239      -30.4102406294      -36.1727070824  TIP3      3017            0.0000000000
     26401      3153  TIP3      H2            -16.2103781326      -30.5305054670      -37.6498546793  TIP3      3017            0.0000000000
     26402      3154  TIP3      OH2           -31.3866398631      -29.4934107611      -32.0287510554  TIP3      3018            0.0000000000
     26403      3154  TIP3      H1            -31.0225363118      -30.3673322169      -31.8142818662  TIP3      3018            0.0000000000
     26404      3154  TIP3      H2            -30.5519854588      -28.9813354362      -32.0583996410  TIP3      3018            0.0000000000
     26405      3155  TIP3      OH2           -32.7603777517      -27.3804097247      -30.4860263024  TIP3      3019            0.0000000000
     26406      3155  TIP3      H1            -32.1504548558      -27.9081910438      -31.0481886308  TIP3      3019            0.0000000000
     26407      3155  TIP3      H2            -32.1527295697      -26.9533700083      -29.8593409819  TIP3      3019            0.0000000000
     26408      3156  TIP3      OH2           -15.1773163843      -31.2436201917      -25.4676258711  TIP3      3020            0.0000000000
     26409      3156  TIP3      H1            -15.8058409156      -30.9094316785      -26.1467887781  TIP3      3020            0.0000000000
     26410      3156  TIP3      H2            -14.3350758615      -31.0833454723      -25.9132827629  TIP3      3020            0.0000000000
     26411      3157  TIP3      OH2           -14.6045298017      -30.8488951389      -40.7603083863  TIP3      3021            0.0000000000
     26412      3157  TIP3      H1            -14.0330018966      -31.6021070487      -40.9962470663  TIP3      3021            0.0000000000
     26413      3157  TIP3      H2            -14.0771710924      -30.1012548523      -41.0671092589  TIP3      3021            0.0000000000
     26414      3158  TIP3      OH2           -32.8545310779      -30.9103882900      -37.6575501069  TIP3      3022            0.0000000000
     26415      3158  TIP3      H1            -32.4596421857      -30.8101008823      -36.7704013184  TIP3      3022            0.0000000000
     26416      3158  TIP3      H2            -32.1820764309      -30.4663940160      -38.2208725102  TIP3      3022            0.0000000000
     26417      3159  TIP3      OH2           -17.5903643423      -15.6005391576      -35.3658326157  TIP3      3023            0.0000000000
     26418      3159  TIP3      H1            -16.7550709445      -15.7521883961      -35.8581317361  TIP3      3023            0.0000000000
     26419      3159  TIP3      H2            -17.2877909258      -15.0754988776      -34.6005419690  TIP3      3023            0.0000000000
     26420      3160  TIP3      OH2           -32.6673647379      -31.3612695215      -29.3638148721  TIP3      3024            0.0000000000
     26421      3160  TIP3      H1            -33.3963385827      -31.6521097763      -28.8035151891  TIP3      3024            0.0000000000
     26422      3160  TIP3      H2            -33.0422671620      -31.3485392279      -30.2594918846  TIP3      3024            0.0000000000
     26423      3161  TIP3      OH2           -30.5259569687      -18.6240969254      -25.1757561460  TIP3      3025            0.0000000000
     26424      3161  TIP3      H1            -30.7644270286      -19.3534188210      -25.7716525666  TIP3      3025            0.0000000000
     26425      3161  TIP3      H2            -30.3447410091      -19.0730462848      -24.3315361072  TIP3      3025            0.0000000000
     26426      3162  TIP3      OH2           -27.6602920838      -17.3962137145      -28.6609283355  TIP3      3026            0.0000000000
     26427      3162  TIP3      H1            -27.7894496030      -16.4731879603      -28.9823078710  TIP3      3026            0.0000000000
     26428      3162  TIP3      H2            -26.6959928424      -17.4914411559      -28.8243622821  TIP3      3026            0.0000000000
     26429      3163  TIP3      OH2           -23.4038844416      -16.6917324939      -26.3174358164  TIP3      3027            0.0000000000
     26430      3163  TIP3      H1            -23.3638723397      -16.6837634904      -25.3367325190  TIP3      3027            0.0000000000
     26431      3163  TIP3      H2            -22.5797425817      -16.1881153727      -26.5304797721  TIP3      3027            0.0000000000
     26432      3164  TIP3      OH2           -21.3476341918      -15.1723948389      -26.9388088809  TIP3      3028            0.0000000000
     26433      3164  TIP3      H1            -20.5637280087      -15.2140974978      -27.5004573701  TIP3      3028            0.0000000000
     26434      3164  TIP3      H2            -20.9210284774      -15.0441130636      -26.0490464883  TIP3      3028            0.0000000000
     26435      3165  TIP3      OH2           -16.2816107602      -32.5001444261      -28.0761379906  TIP3      3029            0.0000000000
     26436      3165  TIP3      H1            -17.1307802301      -32.1285675424      -27.7975229305  TIP3      3029            0.0000000000
     26437      3165  TIP3      H2            -16.5099691447      -33.1530938583      -28.7566390418  TIP3      3029            0.0000000000
     26438      3166  TIP3      OH2           -30.2573915474      -14.2422187098      -28.8846531687  TIP3      3030            0.0000000000
     26439      3166  TIP3      H1            -31.1097795677      -13.9175800026      -29.2662295664  TIP3      3030            0.0000000000
     26440      3166  TIP3      H2            -30.2682295192      -13.7899029318      -28.0262067147  TIP3      3030            0.0000000000
     26441      3167  TIP3      OH2           -27.9437460496      -15.0049274971      -29.7850560565  TIP3      3031            0.0000000000
     26442      3167  TIP3      H1            -28.8197165351      -14.8066922098      -29.3809805398  TIP3      3031            0.0000000000
     26443      3167  TIP3      H2            -28.1102263489      -14.7515442805      -30.7015611051  TIP3      3031            0.0000000000
     26444      3168  TIP3      OH2           -23.1220817419      -15.3679445711      -30.4298445933  TIP3      3032            0.0000000000
     26445      3168  TIP3      H1            -23.8293543289      -14.9014288877      -30.9099564741  TIP3      3032            0.0000000000
     26446      3168  TIP3      H2            -22.7990336954      -14.6434778245      -29.8502595610  TIP3      3032            0.0000000000
     26447      3169  TIP3      OH2           -20.8308513210      -16.6591161561      -29.3543899779  TIP3      3033            0.0000000000
     26448      3169  TIP3      H1            -21.5866513463      -16.3063973370      -29.8702366296  TIP3      3033            0.0000000000
     26449      3169  TIP3      H2            -20.1467607043      -16.0007967978      -29.6215780390  TIP3      3033            0.0000000000
     26450      3170  TIP3      OH2           -18.8596422787      -15.0591081874      -29.9146244277  TIP3      3034            0.0000000000
     26451      3170  TIP3      H1            -18.4131841794      -14.1833738275      -29.8446268632  TIP3      3034            0.0000000000
     26452      3170  TIP3      H2            -18.4546380757      -15.3763219536      -30.7517973347  TIP3      3034            0.0000000000
     26453      3171  TIP3      OH2           -30.3137090050      -15.9921283935      -32.1143282766  TIP3      3035            0.0000000000
     26454      3171  TIP3      H1            -30.5740763792      -16.6977291327      -31.5053930526  TIP3      3035            0.0000000000
     26455      3171  TIP3      H2            -29.4649684965      -16.3462383383      -32.4873487017  TIP3      3035            0.0000000000
     26456      3172  TIP3      OH2           -28.1622169175      -17.1913942144      -33.1280813907  TIP3      3036            0.0000000000
     26457      3172  TIP3      H1            -28.3001109849      -18.1439165170      -32.9432010845  TIP3      3036            0.0000000000
     26458      3172  TIP3      H2            -27.2987131935      -17.0596072106      -32.6722772935  TIP3      3036            0.0000000000
     26459      3173  TIP3      OH2           -25.8846584079      -17.1913383990      -31.7452977097  TIP3      3037            0.0000000000
     26460      3173  TIP3      H1            -25.6766745628      -18.1333969648      -31.9152054605  TIP3      3037            0.0000000000
     26461      3173  TIP3      H2            -25.7406898737      -17.1366934826      -30.7858829969  TIP3      3037            0.0000000000
     26462      3174  TIP3      OH2           -22.3291975667      -30.7811100496      -32.9878701257  TIP3      3038            0.0000000000
     26463      3174  TIP3      H1            -23.0700803081      -31.3529589966      -32.6757086071  TIP3      3038            0.0000000000
     26464      3174  TIP3      H2            -22.2054344418      -31.0862458940      -33.9009973069  TIP3      3038            0.0000000000
     26465      3175  TIP3      OH2           -16.7316282365      -32.8900957128      -33.1426902289  TIP3      3039            0.0000000000
     26466      3175  TIP3      H1            -16.3079006134      -32.2281085740      -33.7271342485  TIP3      3039            0.0000000000
     26467      3175  TIP3      H2            -17.6624368566      -32.6495918382      -33.1803787525  TIP3      3039            0.0000000000
     26468      3176  TIP3      OH2           -15.5097578713      -31.4234876708      -34.9684066972  TIP3      3040            0.0000000000
     26469      3176  TIP3      H1            -15.0505586595      -32.1167418806      -35.5047976996  TIP3      3040            0.0000000000
     26470      3176  TIP3      H2            -14.8200849231      -30.7184271431      -34.9284309047  TIP3      3040            0.0000000000
     26471      3177  TIP3      OH2           -30.2423212254      -32.3095565800      -36.5231314847  TIP3      3041            0.0000000000
     26472      3177  TIP3      H1            -31.1176601143      -32.6987237790      -36.3759148574  TIP3      3041            0.0000000000
     26473      3177  TIP3      H2            -29.6898907322      -33.0542227708      -36.1910773916  TIP3      3041            0.0000000000
     26474      3178  TIP3      OH2           -32.0947603585      -32.9151435047      -39.6983526928  TIP3      3042            0.0000000000
     26475      3178  TIP3      H1            -31.4295098576      -32.3003336824      -40.0534219330  TIP3      3042            0.0000000000
     26476      3178  TIP3      H2            -32.3601315861      -32.4706093961      -38.8751351975  TIP3      3042            0.0000000000
     26477      3179  TIP3      OH2           -26.0855317719      -32.1477393029      -36.2433560261  TIP3      3043            0.0000000000
     26478      3179  TIP3      H1            -25.4669993600      -32.2877568413      -35.5097060998  TIP3      3043            0.0000000000
     26479      3179  TIP3      H2            -26.1981725970      -33.0541920644      -36.5665185253  TIP3      3043            0.0000000000
     26480      3180  TIP3      OH2           -19.7899380370      -32.6159827107      -34.3103257914  TIP3      3044            0.0000000000
     26481      3180  TIP3      H1            -20.0986490615      -33.3299579727      -34.8809766489  TIP3      3044            0.0000000000
     26482      3180  TIP3      H2            -20.2151031662      -32.9056710879      -33.4693905584  TIP3      3044            0.0000000000
     26483      3181  TIP3      OH2           -18.5360787816      -31.1638261462      -38.5983612259  TIP3      3045            0.0000000000
     26484      3181  TIP3      H1            -18.9592533243      -30.3449072389      -38.9382396078  TIP3      3045            0.0000000000
     26485      3181  TIP3      H2            -19.1776718836      -31.8382682501      -38.8953741568  TIP3      3045            0.0000000000
     26486      3182  TIP3      OH2           -31.0178238289      -16.4653819216      -38.3491968225  TIP3      3046            0.0000000000
     26487      3182  TIP3      H1            -31.9222035702      -16.5291891251      -38.6768721214  TIP3      3046            0.0000000000
     26488      3182  TIP3      H2            -30.9172665341      -15.5069424478      -38.4345140056  TIP3      3046            0.0000000000
     26489      3183  TIP3      OH2           -29.6795442810      -31.5288225001      -41.0075912374  TIP3      3047            0.0000000000
     26490      3183  TIP3      H1            -29.1300038959      -31.2797378985      -41.7679317538  TIP3      3047            0.0000000000
     26491      3183  TIP3      H2            -29.0326433462      -31.4567829317      -40.2762362834  TIP3      3047            0.0000000000
     26492      3184  TIP3      OH2           -24.5502746551      -29.7504229616      -38.4526259310  TIP3      3048            0.0000000000
     26493      3184  TIP3      H1            -24.4374540979      -30.5918864632      -37.9816875980  TIP3      3048            0.0000000000
     26494      3184  TIP3      H2            -23.9958492416      -29.1623627799      -37.8885857946  TIP3      3048            0.0000000000
     26495      3185  TIP3      OH2           -22.3278547795      -15.0900810174      -40.6224258223  TIP3      3049            0.0000000000
     26496      3185  TIP3      H1            -21.3453123905      -15.1054104320      -40.7066381799  TIP3      3049            0.0000000000
     26497      3185  TIP3      H2            -22.5610566698      -15.8666487656      -41.1687000416  TIP3      3049            0.0000000000
     26498      3186  TIP3      OH2           -15.7308554128      -16.2645342280      -37.1945273138  TIP3      3050            0.0000000000
     26499      3186  TIP3      H1            -16.0163733421      -17.0541452150      -37.7198287640  TIP3      3050            0.0000000000
     26500      3186  TIP3      H2            -15.8924444426      -15.5605255334      -37.8598690135  TIP3      3050            0.0000000000
     26501      3187  TIP3      OH2           -30.5014145686      -31.7300294308      -25.4419480726  TIP3      3051            0.0000000000
     26502      3187  TIP3      H1            -31.2178260009      -32.3525396823      -25.6534557287  TIP3      3051            0.0000000000
     26503      3187  TIP3      H2            -29.6973916498      -32.2737052705      -25.5118682333  TIP3      3051            0.0000000000
     26504      3188  TIP3      OH2           -28.0573273261      -33.0161760529      -24.8897996010  TIP3      3052            0.0000000000
     26505      3188  TIP3      H1            -27.1144567202      -33.2564753047      -24.9053467535  TIP3      3052            0.0000000000
     26506      3188  TIP3      H2            -28.2078761608      -33.1725904748      -23.9346486770  TIP3      3052            0.0000000000
     26507      3189  TIP3      OH2           -29.3145429891      -15.5168770216      -41.6232585257  TIP3      3053            0.0000000000
     26508      3189  TIP3      H1            -30.1889378520      -15.2404669778      -41.3152557054  TIP3      3053            0.0000000000
     26509      3189  TIP3      H2            -29.1153679529      -16.2744087470      -41.0623193902  TIP3      3053            0.0000000000
     26510      3190  TIP3      OH2           -20.0881219816       32.7899386761      -23.5528267868  TIP3      3054            0.0000000000
     26511      3190  TIP3      H1            -20.7212445214       32.0658220087      -23.4555884202  TIP3      3054            0.0000000000
     26512      3190  TIP3      H2            -19.8776364167       32.7667475693      -24.4986294085  TIP3      3054            0.0000000000
     26513      3191  TIP3      OH2           -16.9073595807      -16.9322300580      -25.6880282545  TIP3      3055            0.0000000000
     26514      3191  TIP3      H1            -17.4713574523      -16.8016270694      -26.4873503284  TIP3      3055            0.0000000000
     26515      3191  TIP3      H2            -16.9612749523      -16.0297342721      -25.2976242194  TIP3      3055            0.0000000000
     26516      3192  TIP3      OH2            -2.0366292727      -23.0506857534      -35.3144512539  TIP3      3056            0.0000000000
     26517      3192  TIP3      H1             -1.7726365975      -22.6048350734      -34.4917703186  TIP3      3056            0.0000000000
     26518      3192  TIP3      H2             -2.3017065589      -22.2774513252      -35.8615811038  TIP3      3056            0.0000000000
     26519      3193  TIP3      OH2            -3.2265657140      -24.4490860641      -31.9734317828  TIP3      3057            0.0000000000
     26520      3193  TIP3      H1             -3.0042947695      -24.9127670730      -31.1315421386  TIP3      3057            0.0000000000
     26521      3193  TIP3      H2             -3.7544683205      -25.0933480971      -32.4692016591  TIP3      3057            0.0000000000
     26522      3194  TIP3      OH2           -11.0533699719      -24.5123159896      -30.6158006806  TIP3      3058            0.0000000000
     26523      3194  TIP3      H1            -11.2977701014      -25.2611431810      -30.0312498806  TIP3      3058            0.0000000000
     26524      3194  TIP3      H2            -10.3224461404      -24.1315155527      -30.1025578753  TIP3      3058            0.0000000000
     26525      3195  TIP3      OH2             0.0880300994      -21.4911329968      -33.3015555467  TIP3      3059            0.0000000000
     26526      3195  TIP3      H1              0.1250086275      -22.1879948295      -32.6272542712  TIP3      3059            0.0000000000
     26527      3195  TIP3      H2              0.3954956947      -20.7361300569      -32.7822814273  TIP3      3059            0.0000000000
     26528      3196  TIP3      OH2            -9.8986075542      -19.4747777486      -33.1784651314  TIP3      3060            0.0000000000
     26529      3196  TIP3      H1            -10.2142655559      -20.3963989111      -33.1626357350  TIP3      3060            0.0000000000
     26530      3196  TIP3      H2             -8.9767853763      -19.6170573367      -32.8722491374  TIP3      3060            0.0000000000
     26531      3197  TIP3      OH2           -13.3514931880      -26.9317211287      -36.3756850510  TIP3      3061            0.0000000000
     26532      3197  TIP3      H1            -13.6212939229      -26.0226119881      -36.1846369158  TIP3      3061            0.0000000000
     26533      3197  TIP3      H2            -14.1235067888      -27.2086029136      -36.9017489426  TIP3      3061            0.0000000000
     26534      3198  TIP3      OH2           -13.2848585619      -24.3559217108      -34.0144721619  TIP3      3062            0.0000000000
     26535      3198  TIP3      H1            -12.9758437284      -25.2564192664      -33.7648093441  TIP3      3062            0.0000000000
     26536      3198  TIP3      H2            -12.5151111965      -23.9742341212      -34.4556878311  TIP3      3062            0.0000000000
     26537      3199  TIP3      OH2            -2.1485372441      -15.9711818377      -33.6773554832  TIP3      3063            0.0000000000
     26538      3199  TIP3      H1             -1.5634711411      -16.5500863481      -34.2325845873  TIP3      3063            0.0000000000
     26539      3199  TIP3      H2             -2.2742855943      -16.5802881076      -32.9367378090  TIP3      3063            0.0000000000
     26540      3200  TIP3      OH2            -4.8239953218      -20.8189802536      -31.2849858370  TIP3      3064            0.0000000000
     26541      3200  TIP3      H1             -4.8015499257      -21.4923210743      -31.9788936911  TIP3      3064            0.0000000000
     26542      3200  TIP3      H2             -3.9313026326      -20.4353730145      -31.3655822865  TIP3      3064            0.0000000000
     26543      3201  TIP3      OH2             3.4053043873      -30.3748937345      -30.9417241064  TIP3      3065            0.0000000000
     26544      3201  TIP3      H1              3.8252892298      -29.7076381370      -30.3602312562  TIP3      3065            0.0000000000
     26545      3201  TIP3      H2              4.1242465187      -30.6280484303      -31.5438150076  TIP3      3065            0.0000000000
     26546      3202  TIP3      OH2            -0.9979612597      -27.3584502075      -31.4414356215  TIP3      3066            0.0000000000
     26547      3202  TIP3      H1             -0.8816551305      -28.3216096069      -31.3084663543  TIP3      3066            0.0000000000
     26548      3202  TIP3      H2             -1.3846463350      -27.3675406547      -32.3429721984  TIP3      3066            0.0000000000
     26549      3203  TIP3      OH2            -8.2472068038      -29.0444334346      -34.4251130181  TIP3      3067            0.0000000000
     26550      3203  TIP3      H1             -8.3035452607      -28.2975247090      -35.0552853448  TIP3      3067            0.0000000000
     26551      3203  TIP3      H2             -8.8422566161      -29.6550236203      -34.8960688713  TIP3      3067            0.0000000000
     26552      3204  TIP3      OH2            -0.8465307022      -28.9296153238      -35.4503423230  TIP3      3068            0.0000000000
     26553      3204  TIP3      H1             -0.2001134914      -29.3204505481      -34.8144244533  TIP3      3068            0.0000000000
     26554      3204  TIP3      H2             -0.2246526035      -28.4169620287      -35.9938526231  TIP3      3068            0.0000000000
     26555      3205  TIP3      OH2           -12.1274644282      -26.7415564126      -33.3433605886  TIP3      3069            0.0000000000
     26556      3205  TIP3      H1            -11.4339955940      -26.9824964501      -32.7026403979  TIP3      3069            0.0000000000
     26557      3205  TIP3      H2            -11.7294730940      -27.0957473762      -34.1682257849  TIP3      3069            0.0000000000
     26558      3206  TIP3      OH2            -7.4574133381      -25.3176489027      -33.9948976534  TIP3      3070            0.0000000000
     26559      3206  TIP3      H1             -6.6041748706      -25.6791148845      -33.6784649969  TIP3      3070            0.0000000000
     26560      3206  TIP3      H2             -7.7373043875      -25.9675109176      -34.6701306594  TIP3      3070            0.0000000000
     26561      3207  TIP3      OH2             3.9587803960      -28.6755254755      -28.7150279828  TIP3      3071            0.0000000000
     26562      3207  TIP3      H1              3.5328110761      -27.8121119095      -28.9327633839  TIP3      3071            0.0000000000
     26563      3207  TIP3      H2              3.9362549405      -28.6522855273      -27.7479113735  TIP3      3071            0.0000000000
     26564      3208  TIP3      OH2            -9.3612434734      -30.3148212019      -30.3423997388  TIP3      3072            0.0000000000
     26565      3208  TIP3      H1             -9.8381458648      -29.7798340990      -31.0038297398  TIP3      3072            0.0000000000
     26566      3208  TIP3      H2             -9.9077102500      -30.1162471991      -29.5501031620  TIP3      3072            0.0000000000
     26567      3209  TIP3      OH2            -2.7375778583      -20.7089447660      -36.6186416837  TIP3      3073            0.0000000000
     26568      3209  TIP3      H1             -2.9276222359      -20.7972643260      -37.5733728721  TIP3      3073            0.0000000000
     26569      3209  TIP3      H2             -3.0332907177      -19.7856426742      -36.4589587030  TIP3      3073            0.0000000000
     26570      3210  TIP3      OH2            -7.4722144554      -22.5618036993      -30.4312063381  TIP3      3074            0.0000000000
     26571      3210  TIP3      H1             -8.0482420921      -22.0329844710      -29.8356794015  TIP3      3074            0.0000000000
     26572      3210  TIP3      H2             -7.1986024996      -21.8761082977      -31.0609225783  TIP3      3074            0.0000000000
     26573      3211  TIP3      OH2             1.0231788244      -29.7197149050      -33.7576167526  TIP3      3075            0.0000000000
     26574      3211  TIP3      H1              0.8462883955      -30.6109833072      -33.4329347472  TIP3      3075            0.0000000000
     26575      3211  TIP3      H2              1.7500336605      -29.4591369290      -33.1726255945  TIP3      3075            0.0000000000
     26576      3212  TIP3      OH2            -9.9167011457      -28.1726943403      -32.2338367398  TIP3      3076            0.0000000000
     26577      3212  TIP3      H1             -9.2806485123      -27.7250843618      -31.6301683307  TIP3      3076            0.0000000000
     26578      3212  TIP3      H2             -9.3268558413      -28.4165415152      -32.9733704923  TIP3      3076            0.0000000000
     26579      3213  TIP3      OH2            -8.7374986808      -20.6938879512      -28.6566636205  TIP3      3077            0.0000000000
     26580      3213  TIP3      H1             -9.1594826140      -19.8739287511      -28.9570782097  TIP3      3077            0.0000000000
     26581      3213  TIP3      H2             -9.5350295853      -21.1462117884      -28.3278232700  TIP3      3077            0.0000000000
     26582      3214  TIP3      OH2           -13.0337326583      -20.9967112775      -38.0999303917  TIP3      3078            0.0000000000
     26583      3214  TIP3      H1            -12.9139515686      -20.6474910122      -39.0028762619  TIP3      3078            0.0000000000
     26584      3214  TIP3      H2            -12.6977694580      -20.2824056754      -37.5360713675  TIP3      3078            0.0000000000
     26585      3215  TIP3      OH2             0.9558104275      -19.2866299619      -31.2339426996  TIP3      3079            0.0000000000
     26586      3215  TIP3      H1              0.0069797995      -19.0638460609      -31.1411395932  TIP3      3079            0.0000000000
     26587      3215  TIP3      H2              1.2178588672      -18.4821022264      -31.7230490682  TIP3      3079            0.0000000000
     26588      3216  TIP3      OH2             0.9888644522      -30.5342275254      -29.6988850701  TIP3      3080            0.0000000000
     26589      3216  TIP3      H1              0.3619918579      -30.3607751184      -30.4264242976  TIP3      3080            0.0000000000
     26590      3216  TIP3      H2              1.8308603739      -30.6910076114      -30.1816152271  TIP3      3080            0.0000000000
     26591      3217  TIP3      OH2            -5.7332273636      -32.3384739027      -32.8417094771  TIP3      3081            0.0000000000
     26592      3217  TIP3      H1             -5.8586618811      -33.2353401418      -33.1903681139  TIP3      3081            0.0000000000
     26593      3217  TIP3      H2             -6.6417424787      -32.1008694083      -32.5566758964  TIP3      3081            0.0000000000
     26594      3218  TIP3      OH2            -0.6261729832      -17.5824539670      -35.0357481835  TIP3      3082            0.0000000000
     26595      3218  TIP3      H1             -0.3468110931      -18.3437916125      -35.5922704424  TIP3      3082            0.0000000000
     26596      3218  TIP3      H2              0.1460967720      -16.9729404093      -35.1509587521  TIP3      3082            0.0000000000
     26597      3219  TIP3      OH2             0.3034673375      -19.5776885483      -36.4952124859  TIP3      3083            0.0000000000
     26598      3219  TIP3      H1             -0.0160808964      -20.1551496133      -37.2197931477  TIP3      3083            0.0000000000
     26599      3219  TIP3      H2              0.1854604260      -20.1711245363      -35.7379833560  TIP3      3083            0.0000000000
     26600      3220  TIP3      OH2             2.2403433187      -21.0119953990      -27.7210745663  TIP3      3084            0.0000000000
     26601      3220  TIP3      H1              2.2129540466      -21.6996763767      -28.4217600548  TIP3      3084            0.0000000000
     26602      3220  TIP3      H2              2.4578042910      -20.2153772477      -28.2412991887  TIP3      3084            0.0000000000
     26603      3221  TIP3      OH2            -3.3237869231      -24.0013582750      -38.0745317206  TIP3      3085            0.0000000000
     26604      3221  TIP3      H1             -3.8523879112      -23.1720644761      -38.0189374300  TIP3      3085            0.0000000000
     26605      3221  TIP3      H2             -2.5223880060      -23.6297075251      -38.4917551511  TIP3      3085            0.0000000000
     26606      3222  TIP3      OH2            -3.6464100567      -24.9359448259      -40.7783915896  TIP3      3086            0.0000000000
     26607      3222  TIP3      H1             -3.2302861110      -24.6985163369      -39.9328718106  TIP3      3086            0.0000000000
     26608      3222  TIP3      H2             -3.2935368550      -25.8235588660      -40.9388794818  TIP3      3086            0.0000000000
     26609      3223  TIP3      OH2             4.1179639250      -24.2414940041      -29.5104556164  TIP3      3087            0.0000000000
     26610      3223  TIP3      H1              3.3250835433      -23.7624167800      -29.8300470720  TIP3      3087            0.0000000000
     26611      3223  TIP3      H2              4.7389609282      -24.0172682361      -30.2303899085  TIP3      3087            0.0000000000
     26612      3224  TIP3      OH2             0.0375174532      -24.4843470023      -36.6046921082  TIP3      3088            0.0000000000
     26613      3224  TIP3      H1             -0.6893933485      -24.1003792658      -36.0650929434  TIP3      3088            0.0000000000
     26614      3224  TIP3      H2              0.7426144689      -24.6424195441      -35.9528041952  TIP3      3088            0.0000000000
     26615      3225  TIP3      OH2             0.0172373674      -25.2904985208      -27.9462978251  TIP3      3089            0.0000000000
     26616      3225  TIP3      H1             -0.5248097387      -24.6595110499      -27.4492209287  TIP3      3089            0.0000000000
     26617      3225  TIP3      H2             -0.5326736857      -25.3917966283      -28.7328260080  TIP3      3089            0.0000000000
     26618      3226  TIP3      OH2            -8.3307926120      -23.0681546710      -34.9589865536  TIP3      3090            0.0000000000
     26619      3226  TIP3      H1             -8.6243072400      -23.4577135578      -35.7966578114  TIP3      3090            0.0000000000
     26620      3226  TIP3      H2             -7.8453655716      -23.8246875581      -34.5611213147  TIP3      3090            0.0000000000
     26621      3227  TIP3      OH2            -7.3198380258      -20.1380381089      -32.5701400689  TIP3      3091            0.0000000000
     26622      3227  TIP3      H1             -7.2228708642      -19.9226588138      -33.5180515566  TIP3      3091            0.0000000000
     26623      3227  TIP3      H2             -6.4112269108      -20.1086244506      -32.2289427551  TIP3      3091            0.0000000000
     26624      3228  TIP3      OH2            -8.1581056676      -24.9467285541      -31.4392852167  TIP3      3092            0.0000000000
     26625      3228  TIP3      H1             -8.1395525750      -24.7612699628      -32.3984681728  TIP3      3092            0.0000000000
     26626      3228  TIP3      H2             -7.7669116349      -24.1239335289      -31.0970978616  TIP3      3092            0.0000000000
     26627      3229  TIP3      OH2            -1.6998300486      -18.7832826339      -30.9629450527  TIP3      3093            0.0000000000
     26628      3229  TIP3      H1             -1.7092797002      -18.2282728458      -30.1550328423  TIP3      3093            0.0000000000
     26629      3229  TIP3      H2             -1.6387789039      -19.6752080776      -30.5674753221  TIP3      3093            0.0000000000
     26630      3230  TIP3      OH2            -6.8347668765      -19.8300856403      -26.8766570225  TIP3      3094            0.0000000000
     26631      3230  TIP3      H1             -7.4578187470      -19.2397311084      -26.3873645260  TIP3      3094            0.0000000000
     26632      3230  TIP3      H2             -7.4524161841      -20.1375471128      -27.5781225215  TIP3      3094            0.0000000000
     26633      3231  TIP3      OH2            -0.8271605630      -24.4174355851      -39.1372585470  TIP3      3095            0.0000000000
     26634      3231  TIP3      H1             -0.3863266627      -24.3967928103      -38.2510118987  TIP3      3095            0.0000000000
     26635      3231  TIP3      H2             -0.2378742725      -23.8757513720      -39.7097367524  TIP3      3095            0.0000000000
     26636      3232  TIP3      OH2           -10.6762536962      -23.5387565522      -27.6806461649  TIP3      3096            0.0000000000
     26637      3232  TIP3      H1            -10.5396049380      -23.0359391052      -26.8462294188  TIP3      3096            0.0000000000
     26638      3232  TIP3      H2            -11.3608241379      -24.1682820749      -27.3934855569  TIP3      3096            0.0000000000
     26639      3233  TIP3      OH2            -3.8544704906      -18.0383020774      -36.5128297386  TIP3      3097            0.0000000000
     26640      3233  TIP3      H1             -3.7540954386      -17.6709221201      -35.6262185388  TIP3      3097            0.0000000000
     26641      3233  TIP3      H2             -4.1329751003      -17.2747766820      -37.0458286754  TIP3      3097            0.0000000000
     26642      3234  TIP3      OH2            -8.7081296061      -18.1781417947      -25.9188883518  TIP3      3098            0.0000000000
     26643      3234  TIP3      H1             -8.9812077056      -17.7226005281      -26.7412718411  TIP3      3098            0.0000000000
     26644      3234  TIP3      H2             -9.5825154322      -18.4700915754      -25.5883098135  TIP3      3098            0.0000000000
     26645      3235  TIP3      OH2             2.0816076111      -32.4013417079      -39.7200169351  TIP3      3099            0.0000000000
     26646      3235  TIP3      H1              1.6857847543      -31.7999601358      -39.0656906425  TIP3      3099            0.0000000000
     26647      3235  TIP3      H2              2.8451759634      -31.8549547915      -40.0114889664  TIP3      3099            0.0000000000
     26648      3236  TIP3      OH2            -9.3050086108      -24.4290709175      -37.9035963877  TIP3      3100            0.0000000000
     26649      3236  TIP3      H1             -9.8190616510      -23.7088696225      -38.3455844529  TIP3      3100            0.0000000000
     26650      3236  TIP3      H2             -9.9760406374      -25.1106552450      -37.7961333301  TIP3      3100            0.0000000000
     26651      3237  TIP3      OH2             3.6865910373      -18.7547454256      -40.5721862016  TIP3      3101            0.0000000000
     26652      3237  TIP3      H1              3.8049343118      -17.7820246013      -40.5593499150  TIP3      3101            0.0000000000
     26653      3237  TIP3      H2              4.5658811699      -19.0608216393      -40.8351448247  TIP3      3101            0.0000000000
     26654      3238  TIP3      OH2           -13.1038751755      -21.5415449869      -28.6669375744  TIP3      3102            0.0000000000
     26655      3238  TIP3      H1            -13.5014987673      -21.6151860362      -29.5470590299  TIP3      3102            0.0000000000
     26656      3238  TIP3      H2            -12.9025765910      -22.4794674534      -28.4796454575  TIP3      3102            0.0000000000
     26657      3239  TIP3      OH2           -13.1891739695      -19.1334017268      -32.1981508044  TIP3      3103            0.0000000000
     26658      3239  TIP3      H1            -12.4008225910      -19.5483670900      -31.8044114306  TIP3      3103            0.0000000000
     26659      3239  TIP3      H2            -13.3989157370      -18.4449729026      -31.5405409595  TIP3      3103            0.0000000000
     26660      3240  TIP3      OH2             5.0423066380      -18.9312330938      -26.2740967896  TIP3      3104            0.0000000000
     26661      3240  TIP3      H1              4.8763100812      -19.8861259497      -26.1572677673  TIP3      3104            0.0000000000
     26662      3240  TIP3      H2              4.1957338159      -18.5792427803      -25.9314166365  TIP3      3104            0.0000000000
     26663      3241  TIP3      OH2            -4.4482561799      -18.6287838145      -27.5226813707  TIP3      3105            0.0000000000
     26664      3241  TIP3      H1             -4.4516378386      -17.7881076009      -27.0262946866  TIP3      3105            0.0000000000
     26665      3241  TIP3      H2             -5.3131427137      -19.0192190119      -27.2677735334  TIP3      3105            0.0000000000
     26666      3242  TIP3      OH2            -4.1450406016      -15.3153022223      -37.9226670944  TIP3      3106            0.0000000000
     26667      3242  TIP3      H1             -4.1409549685      -15.0669642974      -38.8732337480  TIP3      3106            0.0000000000
     26668      3242  TIP3      H2             -3.9894424506      -14.4539562923      -37.4722606372  TIP3      3106            0.0000000000
     26669      3243  TIP3      OH2           -10.0878512542      -16.4031272479      -35.6018329216  TIP3      3107            0.0000000000
     26670      3243  TIP3      H1             -9.9945201593      -16.7230607070      -34.6836553682  TIP3      3107            0.0000000000
     26671      3243  TIP3      H2            -10.8448530877      -16.9400913116      -35.9263751436  TIP3      3107            0.0000000000
     26672      3244  TIP3      OH2            -0.8547159621      -15.8313222437      -41.0377513822  TIP3      3108            0.0000000000
     26673      3244  TIP3      H1             -0.4501621266      -16.7195692847      -41.0299599125  TIP3      3108            0.0000000000
     26674      3244  TIP3      H2             -0.3796257269      -15.3787035222      -40.3021742881  TIP3      3108            0.0000000000
     26675      3245  TIP3      OH2            -1.3982791798      -15.8391293732      -37.4834028956  TIP3      3109            0.0000000000
     26676      3245  TIP3      H1             -2.3736648644      -15.8696589459      -37.5135648534  TIP3      3109            0.0000000000
     26677      3245  TIP3      H2             -1.1511183496      -16.7165567722      -37.1564365790  TIP3      3109            0.0000000000
     26678      3246  TIP3      OH2             1.7295280641      -26.8613302753      -26.0450472649  TIP3      3110            0.0000000000
     26679      3246  TIP3      H1              1.1281167063      -26.3633680037      -26.6237881152  TIP3      3110            0.0000000000
     26680      3246  TIP3      H2              1.6780587106      -27.7731208334      -26.3950090455  TIP3      3110            0.0000000000
     26681      3247  TIP3      OH2           -11.1591404345      -20.1937827736      -27.3565938393  TIP3      3111            0.0000000000
     26682      3247  TIP3      H1            -10.9584456141      -20.8004694322      -26.6004737877  TIP3      3111            0.0000000000
     26683      3247  TIP3      H2            -11.9038639868      -20.6426790977      -27.8185133076  TIP3      3111            0.0000000000
     26684      3248  TIP3      OH2            -8.2791468195      -31.9167643166      -32.0845606996  TIP3      3112            0.0000000000
     26685      3248  TIP3      H1             -9.1242808697      -31.9992104691      -32.5764475523  TIP3      3112            0.0000000000
     26686      3248  TIP3      H2             -8.5890311968      -31.4055305533      -31.3000250521  TIP3      3112            0.0000000000
     26687      3249  TIP3      OH2            -3.5703350478      -31.8720778624      -28.3665589544  TIP3      3113            0.0000000000
     26688      3249  TIP3      H1             -3.2812207058      -32.7164637680      -28.0062092202  TIP3      3113            0.0000000000
     26689      3249  TIP3      H2             -4.5259439738      -31.9877675229      -28.4529891622  TIP3      3113            0.0000000000
     26690      3250  TIP3      OH2            -0.8905659453      -28.0183784158      -27.5782623729  TIP3      3114            0.0000000000
     26691      3250  TIP3      H1             -1.2921381253      -28.4816297568      -26.7931607434  TIP3      3114            0.0000000000
     26692      3250  TIP3      H2             -1.1781286144      -27.1087017757      -27.4258422021  TIP3      3114            0.0000000000
     26693      3251  TIP3      OH2             0.3925096931      -23.1791277591      -41.2631980663  TIP3      3115            0.0000000000
     26694      3251  TIP3      H1              0.1490091815      -22.9593533212      -42.1731755551  TIP3      3115            0.0000000000
     26695      3251  TIP3      H2              1.3250504755      -22.9074357218      -41.2224364077  TIP3      3115            0.0000000000
     26696      3252  TIP3      OH2            -4.0929804338      -29.3151525791      -40.7564815773  TIP3      3116            0.0000000000
     26697      3252  TIP3      H1             -4.5461467442      -29.8351026354      -40.0659592324  TIP3      3116            0.0000000000
     26698      3252  TIP3      H2             -4.0691912958      -29.9624392044      -41.4657053832  TIP3      3116            0.0000000000
     26699      3253  TIP3      OH2            -8.1246002334      -27.4005132883      -30.4123918119  TIP3      3117            0.0000000000
     26700      3253  TIP3      H1             -8.4552086726      -27.2636140581      -29.5022200986  TIP3      3117            0.0000000000
     26701      3253  TIP3      H2             -8.1754278202      -26.4789357220      -30.7666236606  TIP3      3117            0.0000000000
     26702      3254  TIP3      OH2            -8.3776643826      -26.9269021906      -36.1095685651  TIP3      3118            0.0000000000
     26703      3254  TIP3      H1             -9.3531644441      -27.0501181925      -36.1207007768  TIP3      3118            0.0000000000
     26704      3254  TIP3      H2             -8.1430434600      -26.6921972994      -37.0247821244  TIP3      3118            0.0000000000
     26705      3255  TIP3      OH2            -2.5062226209      -26.5648370106      -37.2375924953  TIP3      3119            0.0000000000
     26706      3255  TIP3      H1             -2.4620629728      -25.6304456982      -37.5073440981  TIP3      3119            0.0000000000
     26707      3255  TIP3      H2             -1.8280263236      -26.9200657427      -37.8517635420  TIP3      3119            0.0000000000
     26708      3256  TIP3      OH2            -3.1553794498      -25.5100660329      -26.0579450727  TIP3      3120            0.0000000000
     26709      3256  TIP3      H1             -3.9728133259      -26.0419855121      -26.1631084633  TIP3      3120            0.0000000000
     26710      3256  TIP3      H2             -2.8803642521      -25.8090765916      -25.1657563792  TIP3      3120            0.0000000000
     26711      3257  TIP3      OH2            -2.3264698302      -26.9440607679      -33.9550358748  TIP3      3121            0.0000000000
     26712      3257  TIP3      H1             -1.9783707424      -26.0781907983      -34.2321666871  TIP3      3121            0.0000000000
     26713      3257  TIP3      H2             -1.7956079361      -27.5630845836      -34.5045354502  TIP3      3121            0.0000000000
     26714      3258  TIP3      OH2           -11.2005879225      -26.7372580644      -28.9415258055  TIP3      3122            0.0000000000
     26715      3258  TIP3      H1            -10.3789205034      -26.4671360505      -28.4850190620  TIP3      3122            0.0000000000
     26716      3258  TIP3      H2            -11.2456056725      -27.6785957670      -28.6990671470  TIP3      3122            0.0000000000
     26717      3259  TIP3      OH2            -7.5911633248      -29.3230969431      -41.6991049156  TIP3      3123            0.0000000000
     26718      3259  TIP3      H1             -7.8468164180      -29.8449848771      -40.9053064706  TIP3      3123            0.0000000000
     26719      3259  TIP3      H2             -7.6175824485      -28.4214394897      -41.3338905021  TIP3      3123            0.0000000000
     26720      3260  TIP3      OH2           -13.8048004031      -29.3954351521      -34.7877327836  TIP3      3124            0.0000000000
     26721      3260  TIP3      H1            -13.1643498146      -29.5519021205      -34.0732617029  TIP3      3124            0.0000000000
     26722      3260  TIP3      H2            -13.4837599395      -28.5577711769      -35.1511681613  TIP3      3124            0.0000000000
     26723      3261  TIP3      OH2           -12.3991654875      -28.5502008000      -38.9163142754  TIP3      3125            0.0000000000
     26724      3261  TIP3      H1            -11.9690577044      -28.1104091019      -39.6814899466  TIP3      3125            0.0000000000
     26725      3261  TIP3      H2            -12.8994716024      -27.8058773194      -38.5520248993  TIP3      3125            0.0000000000
     26726      3262  TIP3      OH2            -2.4772942902      -25.6357645288      -29.6362815800  TIP3      3126            0.0000000000
     26727      3262  TIP3      H1             -2.0324491283      -26.4712015981      -29.8701277082  TIP3      3126            0.0000000000
     26728      3262  TIP3      H2             -3.1816106047      -25.9776643190      -29.0245228058  TIP3      3126            0.0000000000
     26729      3263  TIP3      OH2            -5.4058429124      -29.3068604444      -34.7408542546  TIP3      3127            0.0000000000
     26730      3263  TIP3      H1             -6.3624820939      -29.4520053738      -34.6043905977  TIP3      3127            0.0000000000
     26731      3263  TIP3      H2             -5.0606395115      -29.6775167842      -33.9176567469  TIP3      3127            0.0000000000
     26732      3264  TIP3      OH2           -10.9406710026      -27.6918848643      -35.7164379302  TIP3      3128            0.0000000000
     26733      3264  TIP3      H1            -11.7745823631      -27.4670792400      -36.1927172320  TIP3      3128            0.0000000000
     26734      3264  TIP3      H2            -10.7226105996      -28.5740105383      -36.0986397176  TIP3      3128            0.0000000000
     26735      3265  TIP3      OH2            -6.6281233120      -26.6980841489      -38.3121495098  TIP3      3129            0.0000000000
     26736      3265  TIP3      H1             -6.1327251187      -27.5354457138      -38.2323054644  TIP3      3129            0.0000000000
     26737      3265  TIP3      H2             -7.2575823917      -26.8757192613      -39.0422793467  TIP3      3129            0.0000000000
     26738      3266  TIP3      OH2            -1.2024735179      -30.0717208998      -31.4385172046  TIP3      3130            0.0000000000
     26739      3266  TIP3      H1             -1.7673267859      -29.9453228778      -30.6361579336  TIP3      3130            0.0000000000
     26740      3266  TIP3      H2             -1.8604053190      -30.4747284038      -32.0438095501  TIP3      3130            0.0000000000
     26741      3267  TIP3      OH2            -8.3066522754      -26.8072487425      -40.3827213056  TIP3      3131            0.0000000000
     26742      3267  TIP3      H1             -9.0498301184      -26.7626818109      -40.9959230208  TIP3      3131            0.0000000000
     26743      3267  TIP3      H2             -7.6166856671      -26.2677197486      -40.8466585123  TIP3      3131            0.0000000000
     26744      3268  TIP3      OH2             1.6847226787      -14.3265687173      -25.0381930482  TIP3      3132            0.0000000000
     26745      3268  TIP3      H1              2.0045048272      -13.8542793849      -25.8286229267  TIP3      3132            0.0000000000
     26746      3268  TIP3      H2              2.3758926092      -14.0728330081      -24.3854609851  TIP3      3132            0.0000000000
     26747      3269  TIP3      OH2           -10.4611351322      -22.0637683958      -25.2527498964  TIP3      3133            0.0000000000
     26748      3269  TIP3      H1             -9.8856230712      -21.9736697715      -24.4752815757  TIP3      3133            0.0000000000
     26749      3269  TIP3      H2            -11.3086964688      -22.3073900408      -24.8159951181  TIP3      3133            0.0000000000
     26750      3270  TIP3      OH2            -4.9790681601      -26.4483035904      -33.4075198278  TIP3      3134            0.0000000000
     26751      3270  TIP3      H1             -4.0547259433      -26.7646206957      -33.5500076235  TIP3      3134            0.0000000000
     26752      3270  TIP3      H2             -5.3685207052      -27.2531219722      -33.0229352264  TIP3      3134            0.0000000000
     26753      3271  TIP3      OH2            -9.9014771798      -30.2076542108      -36.2989918737  TIP3      3135            0.0000000000
     26754      3271  TIP3      H1            -10.4789469425      -30.9072847884      -35.9160008328  TIP3      3135            0.0000000000
     26755      3271  TIP3      H2             -9.2774161323      -30.7654536007      -36.7943721605  TIP3      3135            0.0000000000
     26756      3272  TIP3      OH2            -5.7237990830      -28.7839604685      -31.0588720092  TIP3      3136            0.0000000000
     26757      3272  TIP3      H1             -6.5132222225      -28.2127982398      -30.9340148488  TIP3      3136            0.0000000000
     26758      3272  TIP3      H2             -5.0534005990      -28.3426186253      -30.5111006222  TIP3      3136            0.0000000000
     26759      3273  TIP3      OH2            -5.2995855203      -22.1626675774      -38.0632867784  TIP3      3137            0.0000000000
     26760      3273  TIP3      H1             -6.0093752276      -22.6717645936      -38.5235011414  TIP3      3137            0.0000000000
     26761      3273  TIP3      H2             -5.7910948127      -21.7531781550      -37.3111849429  TIP3      3137            0.0000000000
     26762      3274  TIP3      OH2             2.0628750594      -22.3966479803      -30.0224026101  TIP3      3138            0.0000000000
     26763      3274  TIP3      H1              2.5938273083      -21.8129796226      -30.6185259286  TIP3      3138            0.0000000000
     26764      3274  TIP3      H2              1.3001509760      -22.6238283245      -30.5820367514  TIP3      3138            0.0000000000
     26765      3275  TIP3      OH2            -1.5142739295      -29.4456887543      -39.8273873817  TIP3      3139            0.0000000000
     26766      3275  TIP3      H1             -2.3387010482      -29.2935170423      -40.3317209204  TIP3      3139            0.0000000000
     26767      3275  TIP3      H2             -1.0236264880      -28.6258836614      -40.0188807897  TIP3      3139            0.0000000000
     26768      3276  TIP3      OH2            -3.6901174939      -21.3285763828      -26.8703199263  TIP3      3140            0.0000000000
     26769      3276  TIP3      H1             -4.1660711470      -21.5263412434      -26.0444699726  TIP3      3140            0.0000000000
     26770      3276  TIP3      H2             -3.5766171043      -20.3632669099      -26.8152554611  TIP3      3140            0.0000000000
     26771      3277  TIP3      OH2            -0.4629987325      -27.1174289454      -38.9544184683  TIP3      3141            0.0000000000
     26772      3277  TIP3      H1              0.2268841796      -27.2534755918      -38.2702687827  TIP3      3141            0.0000000000
     26773      3277  TIP3      H2             -0.3593910430      -26.1662623810      -39.1543246598  TIP3      3141            0.0000000000
     26774      3278  TIP3      OH2           -10.2461936100      -22.4001171016      -32.9754996431  TIP3      3142            0.0000000000
     26775      3278  TIP3      H1             -9.6377882744      -22.4833881277      -33.7381524565  TIP3      3142            0.0000000000
     26776      3278  TIP3      H2             -9.9962975369      -23.1517883441      -32.4236564923  TIP3      3142            0.0000000000
     26777      3279  TIP3      OH2            -3.2705891283      -21.0687417510      -39.3821384240  TIP3      3143            0.0000000000
     26778      3279  TIP3      H1             -3.5134649866      -20.1236284519      -39.5299526386  TIP3      3143            0.0000000000
     26779      3279  TIP3      H2             -4.0959026522      -21.4726616614      -39.0382309537  TIP3      3143            0.0000000000
     26780      3280  TIP3      OH2           -13.4520191282      -24.1269208523      -27.3314014891  TIP3      3144            0.0000000000
     26781      3280  TIP3      H1            -13.5562905114      -24.8462153637      -26.6688034252  TIP3      3144            0.0000000000
     26782      3280  TIP3      H2            -13.8415278052      -24.5191304716      -28.1443055620  TIP3      3144            0.0000000000
     26783      3281  TIP3      OH2            -6.8623874697      -23.8868420174      -25.9334363251  TIP3      3145            0.0000000000
     26784      3281  TIP3      H1             -6.5225297043      -24.7410632288      -26.2745756707  TIP3      3145            0.0000000000
     26785      3281  TIP3      H2             -7.0681105951      -24.1717603131      -25.0326546986  TIP3      3145            0.0000000000
     26786      3282  TIP3      OH2            -0.8975721416      -19.0560974152      -27.1078545540  TIP3      3146            0.0000000000
     26787      3282  TIP3      H1             -1.6870368407      -18.7761453974      -27.5967463809  TIP3      3146            0.0000000000
     26788      3282  TIP3      H2             -1.1027589099      -18.6604726513      -26.2297483293  TIP3      3146            0.0000000000
     26789      3283  TIP3      OH2             3.5966137345      -26.8087477983      -38.3877310866  TIP3      3147            0.0000000000
     26790      3283  TIP3      H1              3.4133143532      -27.0246347373      -39.3205769740  TIP3      3147            0.0000000000
     26791      3283  TIP3      H2              4.1688331231      -26.0308224774      -38.4983979882  TIP3      3147            0.0000000000
     26792      3284  TIP3      OH2             4.5933749929      -21.5965253099      -26.3260326713  TIP3      3148            0.0000000000
     26793      3284  TIP3      H1              3.6891062882      -21.4773120930      -26.7094381835  TIP3      3148            0.0000000000
     26794      3284  TIP3      H2              5.1344583058      -21.5946155428      -27.1527169831  TIP3      3148            0.0000000000
     26795      3285  TIP3      OH2             1.8003289151      -18.0168981016      -38.5176125835  TIP3      3149            0.0000000000
     26796      3285  TIP3      H1              1.5329506697      -18.7745569006      -37.9724087900  TIP3      3149            0.0000000000
     26797      3285  TIP3      H2              2.3769911992      -18.4244226530      -39.1953682252  TIP3      3149            0.0000000000
     26798      3286  TIP3      OH2            -0.2405524605      -23.4347550699      -31.3059532603  TIP3      3150            0.0000000000
     26799      3286  TIP3      H1             -1.1266295257      -23.8297545009      -31.2265923312  TIP3      3150            0.0000000000
     26800      3286  TIP3      H2              0.2205169276      -24.1519848064      -31.7958636770  TIP3      3150            0.0000000000
     26801      3287  TIP3      OH2            -8.0687211159      -19.1487775947      -35.3305368296  TIP3      3151            0.0000000000
     26802      3287  TIP3      H1             -7.7901595590      -18.3023764358      -35.7497187287  TIP3      3151            0.0000000000
     26803      3287  TIP3      H2             -9.0109927632      -19.1677510430      -35.5670252052  TIP3      3151            0.0000000000
     26804      3288  TIP3      OH2           -12.0380523528      -23.9802223792      -41.4311269466  TIP3      3152            0.0000000000
     26805      3288  TIP3      H1            -11.6597102324      -23.4858104472      -40.6784093138  TIP3      3152            0.0000000000
     26806      3288  TIP3      H2            -12.9284991824      -24.2037131190      -41.0951676279  TIP3      3152            0.0000000000
     26807      3289  TIP3      OH2            -6.5256714652      -21.2257781458      -35.8511821007  TIP3      3153            0.0000000000
     26808      3289  TIP3      H1             -7.0243697044      -20.3950134088      -35.6621242825  TIP3      3153            0.0000000000
     26809      3289  TIP3      H2             -7.0583801440      -21.9076103739      -35.3906634868  TIP3      3153            0.0000000000
     26810      3290  TIP3      OH2            -5.9942362347      -17.1895966415      -29.2361685898  TIP3      3154            0.0000000000
     26811      3290  TIP3      H1             -5.2790358656      -16.5858265347      -29.5452151099  TIP3      3154            0.0000000000
     26812      3290  TIP3      H2             -5.4571126285      -17.7672065099      -28.6577441850  TIP3      3154            0.0000000000
     26813      3291  TIP3      OH2            -7.4894244572      -16.7137359387      -36.4229561974  TIP3      3155            0.0000000000
     26814      3291  TIP3      H1             -8.3838697325      -16.3533559357      -36.2310806995  TIP3      3155            0.0000000000
     26815      3291  TIP3      H2             -6.9644724825      -15.9643135642      -36.0703035907  TIP3      3155            0.0000000000
     26816      3292  TIP3      OH2            -1.9266066168      -21.2298646364      -29.6409623722  TIP3      3156            0.0000000000
     26817      3292  TIP3      H1             -1.6545702753      -21.3233997582      -28.7013629041  TIP3      3156            0.0000000000
     26818      3292  TIP3      H2             -1.2755810108      -21.8163192449      -30.0678709937  TIP3      3156            0.0000000000
     26819      3293  TIP3      OH2            -0.1139140790      -20.0973595177      -40.4531632887  TIP3      3157            0.0000000000
     26820      3293  TIP3      H1              0.1737085009      -20.5840007830      -39.6463911151  TIP3      3157            0.0000000000
     26821      3293  TIP3      H2             -0.8729638176      -20.6244443241      -40.7430043679  TIP3      3157            0.0000000000
     26822      3294  TIP3      OH2             0.9587678631      -17.0306828116      -27.6461235344  TIP3      3158            0.0000000000
     26823      3294  TIP3      H1              0.1596244110      -17.5878490411      -27.5381994435  TIP3      3158            0.0000000000
     26824      3294  TIP3      H2              0.6678633966      -16.3936862969      -28.3291002382  TIP3      3158            0.0000000000
     26825      3295  TIP3      OH2             4.2462031433      -16.0293945627      -40.4484258579  TIP3      3159            0.0000000000
     26826      3295  TIP3      H1              4.7582045850      -15.4705018369      -41.0607636847  TIP3      3159            0.0000000000
     26827      3295  TIP3      H2              3.7525896941      -15.3672148349      -39.9176920403  TIP3      3159            0.0000000000
     26828      3296  TIP3      OH2           -11.0685989522      -29.5109028216      -28.1005425980  TIP3      3160            0.0000000000
     26829      3296  TIP3      H1            -11.5305001661      -29.0032558009      -27.4136401723  TIP3      3160            0.0000000000
     26830      3296  TIP3      H2            -11.2671529227      -30.3992123378      -27.7569555968  TIP3      3160            0.0000000000
     26831      3297  TIP3      OH2             0.6547203902      -21.5809626797      -38.2811550886  TIP3      3161            0.0000000000
     26832      3297  TIP3      H1              0.5267233520      -22.4213737149      -37.8182985839  TIP3      3161            0.0000000000
     26833      3297  TIP3      H2              1.6402183410      -21.5034495147      -38.2844089942  TIP3      3161            0.0000000000
     26834      3298  TIP3      OH2           -11.9758040737      -17.9609601060      -29.4584674518  TIP3      3162            0.0000000000
     26835      3298  TIP3      H1            -11.1695689132      -18.3073215242      -29.0482211969  TIP3      3162            0.0000000000
     26836      3298  TIP3      H2            -12.1337790906      -17.1479574653      -28.9633797138  TIP3      3162            0.0000000000
     26837      3299  TIP3      OH2            -7.3993527920      -19.7571575796      -39.7266665680  TIP3      3163            0.0000000000
     26838      3299  TIP3      H1             -6.6999156693      -20.2576560098      -39.2796442486  TIP3      3163            0.0000000000
     26839      3299  TIP3      H2             -7.1977073781      -18.8245157014      -39.4851491994  TIP3      3163            0.0000000000
     26840      3300  TIP3      OH2           -10.9024716366      -22.5892168633      -39.2310056377  TIP3      3164            0.0000000000
     26841      3300  TIP3      H1            -11.6332717107      -22.1562214489      -38.7416906220  TIP3      3164            0.0000000000
     26842      3300  TIP3      H2            -10.4654761023      -21.8323041228      -39.6636254547  TIP3      3164            0.0000000000
     26843      3301  TIP3      OH2            -2.5220605553      -29.6249166334      -29.1838345413  TIP3      3165            0.0000000000
     26844      3301  TIP3      H1             -1.7563850020      -29.3846090022      -28.6283688738  TIP3      3165            0.0000000000
     26845      3301  TIP3      H2             -2.8418427810      -30.4378239029      -28.7206397199  TIP3      3165            0.0000000000
     26846      3302  TIP3      OH2            -2.5164999424      -29.8703513351      -37.2892488658  TIP3      3166            0.0000000000
     26847      3302  TIP3      H1             -2.0215071654      -29.5928546259      -38.0987418842  TIP3      3166            0.0000000000
     26848      3302  TIP3      H2             -1.9468499503      -29.5057317916      -36.5763381783  TIP3      3166            0.0000000000
     26849      3303  TIP3      OH2            -4.1972897994      -18.3890920266      -39.7867072062  TIP3      3167            0.0000000000
     26850      3303  TIP3      H1             -5.0452724217      -17.9413169441      -39.6424490270  TIP3      3167            0.0000000000
     26851      3303  TIP3      H2             -3.5583041460      -17.6727257703      -39.7044737170  TIP3      3167            0.0000000000
     26852      3304  TIP3      OH2            -4.6872133509      -28.1530909789      -37.0076519926  TIP3      3168            0.0000000000
     26853      3304  TIP3      H1             -3.7252941252      -27.9806232067      -37.0663332897  TIP3      3168            0.0000000000
     26854      3304  TIP3      H2             -4.7671759457      -28.6939917565      -36.1852130830  TIP3      3168            0.0000000000
     26855      3305  TIP3      OH2            -3.8564876204      -27.3894850029      -28.1708097602  TIP3      3169            0.0000000000
     26856      3305  TIP3      H1             -4.4473780851      -27.5660141096      -27.4073662935  TIP3      3169            0.0000000000
     26857      3305  TIP3      H2             -3.4633381891      -28.2746640121      -28.3071737667  TIP3      3169            0.0000000000
     26858      3306  TIP3      OH2            -4.1178520225      -31.7978131007      -36.4045592704  TIP3      3170            0.0000000000
     26859      3306  TIP3      H1             -4.3741019148      -31.1652347326      -35.7136377243  TIP3      3170            0.0000000000
     26860      3306  TIP3      H2             -3.4892393183      -31.2260981570      -36.9084554505  TIP3      3170            0.0000000000
     26861      3307  TIP3      OH2            -6.9590553712      -17.0117855786      -39.4170850921  TIP3      3171            0.0000000000
     26862      3307  TIP3      H1             -6.8590891381      -16.1061618442      -39.7680401113  TIP3      3171            0.0000000000
     26863      3307  TIP3      H2             -7.3449428041      -16.8077777380      -38.5478349510  TIP3      3171            0.0000000000
     26864      3308  TIP3      OH2            -8.5842444433      -30.3349910440      -39.3655119717  TIP3      3172            0.0000000000
     26865      3308  TIP3      H1             -8.7928765420      -29.6136828719      -38.7567776633  TIP3      3172            0.0000000000
     26866      3308  TIP3      H2             -7.6762377084      -30.5634991606      -39.0883515251  TIP3      3172            0.0000000000
     26867      3309  TIP3      OH2             1.6868062421      -29.3849344796      -27.0365771888  TIP3      3173            0.0000000000
     26868      3309  TIP3      H1              0.7877588993      -29.0702314962      -27.2568039068  TIP3      3173            0.0000000000
     26869      3309  TIP3      H2              1.9039798489      -29.8455792677      -27.8769337632  TIP3      3173            0.0000000000
     26870      3310  TIP3      OH2             0.5974839137      -25.7563974789      -32.9317841111  TIP3      3174            0.0000000000
     26871      3310  TIP3      H1              0.0137766350      -26.3017895456      -32.3569352433  TIP3      3174            0.0000000000
     26872      3310  TIP3      H2              1.4582729911      -26.1287335526      -32.6024196808  TIP3      3174            0.0000000000
     26873      3311  TIP3      OH2           -10.0796183807      -19.8365402002      -40.8446480301  TIP3      3175            0.0000000000
     26874      3311  TIP3      H1             -9.2743406489      -19.6053833520      -40.3451938207  TIP3      3175            0.0000000000
     26875      3311  TIP3      H2             -9.6955072591      -20.5002219003      -41.4504035792  TIP3      3175            0.0000000000
     26876      3312  TIP3      OH2           -11.8366686980      -27.0083519014      -41.0450930729  TIP3      3176            0.0000000000
     26877      3312  TIP3      H1            -11.3373669766      -26.1828912979      -41.0424752085  TIP3      3176            0.0000000000
     26878      3312  TIP3      H2            -12.6631076420      -26.7101378964      -41.4603601983  TIP3      3176            0.0000000000
     26879      3313  TIP3      OH2             1.3460537453      -16.5957248261      -31.6801942229  TIP3      3177            0.0000000000
     26880      3313  TIP3      H1              1.4325847448      -15.9860366841      -32.4405669297  TIP3      3177            0.0000000000
     26881      3313  TIP3      H2              2.2885886218      -16.7706916767      -31.4863809004  TIP3      3177            0.0000000000
     26882      3314  TIP3      OH2           -10.7595789339      -32.2563619049      -33.1414857824  TIP3      3178            0.0000000000
     26883      3314  TIP3      H1            -11.1434754650      -32.4054356355      -34.0277809075  TIP3      3178            0.0000000000
     26884      3314  TIP3      H2            -11.1279084608      -32.9949385351      -32.5994417822  TIP3      3178            0.0000000000
     26885      3315  TIP3      OH2           -12.1000927823      -17.9458167865      -36.4689765164  TIP3      3179            0.0000000000
     26886      3315  TIP3      H1            -13.0426334145      -17.8493490974      -36.3055054924  TIP3      3179            0.0000000000
     26887      3315  TIP3      H2            -12.0776264512      -17.6245143721      -37.4031276916  TIP3      3179            0.0000000000
     26888      3316  TIP3      OH2           -12.9593059116      -16.1238913630      -25.4451057993  TIP3      3180            0.0000000000
     26889      3316  TIP3      H1            -12.3950825134      -16.7808574190      -24.9999495461  TIP3      3180            0.0000000000
     26890      3316  TIP3      H2            -13.5325276921      -16.7474794520      -25.9559387149  TIP3      3180            0.0000000000
     26891      3317  TIP3      OH2            -7.6075203379      -17.0162249643      -23.7098853165  TIP3      3181            0.0000000000
     26892      3317  TIP3      H1             -6.7035252522      -17.3633341575      -23.8585973956  TIP3      3181            0.0000000000
     26893      3317  TIP3      H2             -8.0406123782      -17.2870143971      -24.5489474961  TIP3      3181            0.0000000000
     26894      3318  TIP3      OH2            -1.2838830108      -17.9692792536      -24.6447359893  TIP3      3182            0.0000000000
     26895      3318  TIP3      H1             -1.4944751983      -18.8653954208      -24.2882267019  TIP3      3182            0.0000000000
     26896      3318  TIP3      H2             -0.4281287530      -17.8075521331      -24.1797444018  TIP3      3182            0.0000000000
     26897      3319  TIP3      OH2             0.8943214420      -17.9603056259      -42.2430549151  TIP3      3183            0.0000000000
     26898      3319  TIP3      H1              0.8017746551      -18.5731578518      -41.4839817306  TIP3      3183            0.0000000000
     26899      3319  TIP3      H2              1.6585757319      -18.3415005190      -42.7143498479  TIP3      3183            0.0000000000
     26900      3320  TIP3      OH2           -13.1151300406      -22.0827859615      -24.7643777205  TIP3      3184            0.0000000000
     26901      3320  TIP3      H1            -13.8375308683      -22.7194075162      -24.8101510240  TIP3      3184            0.0000000000
     26902      3320  TIP3      H2            -13.3822024879      -21.4540976851      -25.4771565961  TIP3      3184            0.0000000000
     26903      3321  TIP3      OH2            -8.5502940579      -21.7612382629      -42.1470411781  TIP3      3185            0.0000000000
     26904      3321  TIP3      H1             -7.8970684670      -21.5846001575      -41.4531299141  TIP3      3185            0.0000000000
     26905      3321  TIP3      H2             -7.9930642975      -22.3252491522      -42.7273182371  TIP3      3185            0.0000000000
     26906      3322  TIP3      OH2            -5.9179097275      -21.4590894656      -24.9371523414  TIP3      3186            0.0000000000
     26907      3322  TIP3      H1             -6.3295999227      -20.9545934217      -25.6664629884  TIP3      3186            0.0000000000
     26908      3322  TIP3      H2             -6.3320407073      -22.3326476622      -25.0925185248  TIP3      3186            0.0000000000
     26909      3323  TIP3      OH2            -0.4390162042      -21.9196955357      -27.3394546958  TIP3      3187            0.0000000000
     26910      3323  TIP3      H1              0.4757999997      -21.6066842843      -27.4922804371  TIP3      3187            0.0000000000
     26911      3323  TIP3      H2             -0.7780648978      -21.1142914829      -26.9103947737  TIP3      3187            0.0000000000
     26912      3324  TIP3      OH2           -11.4715674833      -24.7188507914      -24.6084193460  TIP3      3188            0.0000000000
     26913      3324  TIP3      H1            -10.9122289375      -25.4532941513      -24.3067587259  TIP3      3188            0.0000000000
     26914      3324  TIP3      H2            -11.7238119325      -24.3218725099      -23.7467674748  TIP3      3188            0.0000000000
     26915      3325  TIP3      OH2            -7.0491431485      -23.7955081503      -39.3824193914  TIP3      3189            0.0000000000
     26916      3325  TIP3      H1             -7.8880766129      -24.1692096673      -39.0455491451  TIP3      3189            0.0000000000
     26917      3325  TIP3      H2             -6.8648955838      -24.3433964086      -40.1748382966  TIP3      3189            0.0000000000
     26918      3326  TIP3      OH2            -8.7786168775      -25.6439378361      -28.1468277968  TIP3      3190            0.0000000000
     26919      3326  TIP3      H1             -9.0433270468      -24.7447387595      -27.8639438244  TIP3      3190            0.0000000000
     26920      3326  TIP3      H2             -8.0195728111      -25.8544561413      -27.5810362599  TIP3      3190            0.0000000000
     26921      3327  TIP3      OH2            -6.2303589850      -25.4868646782      -41.5175838094  TIP3      3191            0.0000000000
     26922      3327  TIP3      H1             -6.2181802639      -25.3257942700      -42.4761116742  TIP3      3191            0.0000000000
     26923      3327  TIP3      H2             -5.2714632542      -25.4829597968      -41.2809336029  TIP3      3191            0.0000000000
     26924      3328  TIP3      OH2            -2.5822908200      -23.1060822574      -24.1965117304  TIP3      3192            0.0000000000
     26925      3328  TIP3      H1             -1.7966752212      -23.6343238234      -24.4544968227  TIP3      3192            0.0000000000
     26926      3328  TIP3      H2             -3.1665613175      -23.2691442702      -24.9533238852  TIP3      3192            0.0000000000
     26927      3329  TIP3      OH2             3.0079295843      -22.3672756652      -42.3798678587  TIP3      3193            0.0000000000
     26928      3329  TIP3      H1              2.2903915911      -22.3635169865      -43.0301650096  TIP3      3193            0.0000000000
     26929      3329  TIP3      H2              3.0837007956      -21.4212562241      -42.1635740580  TIP3      3193            0.0000000000
     26930      3330  TIP3      OH2            -8.0403789568      -28.8860922979      -26.9150484118  TIP3      3194            0.0000000000
     26931      3330  TIP3      H1             -7.4943170636      -29.2003713945      -27.6546397725  TIP3      3194            0.0000000000
     26932      3330  TIP3      H2             -7.3711534458      -28.3978089836      -26.4027584439  TIP3      3194            0.0000000000
     26933      3331  TIP3      OH2            -6.8803309018      -30.1247671953      -29.0650344142  TIP3      3195            0.0000000000
     26934      3331  TIP3      H1             -6.2033177884      -29.7337891007      -29.6547470149  TIP3      3195            0.0000000000
     26935      3331  TIP3      H2             -7.6799949705      -30.0034103285      -29.6175825247  TIP3      3195            0.0000000000
     26936      3332  TIP3      OH2            -5.8574309998      -24.7052688480      -29.1680300911  TIP3      3196            0.0000000000
     26937      3332  TIP3      H1             -5.8821101704      -25.6652061881      -29.3048645433  TIP3      3196            0.0000000000
     26938      3332  TIP3      H2             -6.7148591787      -24.4149914246      -29.5213086837  TIP3      3196            0.0000000000
     26939      3333  TIP3      OH2            -2.1265371767      -26.3890330916      -23.6910932198  TIP3      3197            0.0000000000
     26940      3333  TIP3      H1             -2.1539584534      -27.2689567145      -23.2698218374  TIP3      3197            0.0000000000
     26941      3333  TIP3      H2             -1.2176540335      -26.3469097922      -24.0104193171  TIP3      3197            0.0000000000
     26942      3334  TIP3      OH2             0.0448944499      -23.8002668285      -25.1271958582  TIP3      3198            0.0000000000
     26943      3334  TIP3      H1             -0.0519202342      -23.1671013444      -25.8594657014  TIP3      3198            0.0000000000
     26944      3334  TIP3      H2              0.9955132656      -23.9863799241      -25.2509621073  TIP3      3198            0.0000000000
     26945      3335  TIP3      OH2            -8.8141052231      -26.9634763791      -24.3800707342  TIP3      3199            0.0000000000
     26946      3335  TIP3      H1             -9.4197825701      -27.4660886591      -24.9698680265  TIP3      3199            0.0000000000
     26947      3335  TIP3      H2             -8.0981421953      -26.7077152639      -24.9914835828  TIP3      3199            0.0000000000
     26948      3336  TIP3      OH2            -6.3139063856      -32.5501892002      -28.4192313817  TIP3      3200            0.0000000000
     26949      3336  TIP3      H1             -6.4910133955      -31.5766960928      -28.4463537887  TIP3      3200            0.0000000000
     26950      3336  TIP3      H2             -7.0062536349      -32.8610979180      -29.0253650410  TIP3      3200            0.0000000000
     26951      3337  TIP3      OH2            -4.8908059519      -29.6620425063      -25.9312532703  TIP3      3201            0.0000000000
     26952      3337  TIP3      H1             -5.4165498223      -30.3515202229      -25.4920379149  TIP3      3201            0.0000000000
     26953      3337  TIP3      H2             -5.3317626329      -28.8234560951      -25.6777194943  TIP3      3201            0.0000000000
     26954      3338  TIP3      OH2            -2.1840097652      -29.2848385430      -25.7029002062  TIP3      3202            0.0000000000
     26955      3338  TIP3      H1             -3.1201289810      -29.5544440333      -25.5978549683  TIP3      3202            0.0000000000
     26956      3338  TIP3      H2             -1.7434941448      -29.7081010685      -24.9314459208  TIP3      3202            0.0000000000
     26957      3339  TIP3      OH2            -0.9065800107      -30.2983156848      -23.6493220518  TIP3      3203            0.0000000000
     26958      3339  TIP3      H1             -1.2313325726      -31.2220632213      -23.6189321584  TIP3      3203            0.0000000000
     26959      3339  TIP3      H2              0.0198051270      -30.4321384348      -23.3265593528  TIP3      3203            0.0000000000
     26960      3340  TIP3      OH2           -10.8778435579      -28.8726473540      -24.7688567452  TIP3      3204            0.0000000000
     26961      3340  TIP3      H1            -10.2822669396      -29.6326942667      -24.6864864773  TIP3      3204            0.0000000000
     26962      3340  TIP3      H2            -11.0402390343      -28.5940341957      -23.8477671858  TIP3      3204            0.0000000000
     26963      3341  TIP3      OH2            -6.1490189659      -32.2696573906      -25.8023603497  TIP3      3205            0.0000000000
     26964      3341  TIP3      H1             -6.3519689568      -33.2296528140      -25.6862586488  TIP3      3205            0.0000000000
     26965      3341  TIP3      H2             -6.1716350196      -32.2157985561      -26.7824420603  TIP3      3205            0.0000000000
     26966      3342  TIP3      OH2            -6.7877310275      -31.8646406399      -23.2938801625  TIP3      3206            0.0000000000
     26967      3342  TIP3      H1             -6.6818227651      -32.0323369790      -24.2534059875  TIP3      3206            0.0000000000
     26968      3342  TIP3      H2             -7.2304347988      -30.9857387292      -23.3379447701  TIP3      3206            0.0000000000
     26969      3343  TIP3      OH2            -6.4059898789      -14.4732558133      -40.6091017741  TIP3      3207            0.0000000000
     26970      3343  TIP3      H1             -5.5569429876      -14.1618013318      -40.2577433812  TIP3      3207            0.0000000000
     26971      3343  TIP3      H2             -6.1967839862      -14.6214086613      -41.5479418818  TIP3      3207            0.0000000000
     26972      3344  TIP3      OH2           -12.9972336587      -21.1233180838      -41.1616050071  TIP3      3208            0.0000000000
     26973      3344  TIP3      H1            -12.3091164752      -20.4678014791      -41.3423665522  TIP3      3208            0.0000000000
     26974      3344  TIP3      H2            -13.7314864654      -20.8107379307      -41.7136406654  TIP3      3208            0.0000000000
     26975      3345  TIP3      OH2           -13.5852613525      -15.1562437234      -36.0462384280  TIP3      3209            0.0000000000
     26976      3345  TIP3      H1            -14.3444093756      -15.6569279331      -36.4294886460  TIP3      3209            0.0000000000
     26977      3345  TIP3      H2            -13.3610434762      -15.7092329074      -35.2673081186  TIP3      3209            0.0000000000
     26978      3346  TIP3      OH2           -12.9081385354      -16.7667010364      -33.8469425289  TIP3      3210            0.0000000000
     26979      3346  TIP3      H1            -13.1611699161      -17.6939611255      -33.6904077360  TIP3      3210            0.0000000000
     26980      3346  TIP3      H2            -12.3390126822      -16.5834699422      -33.0774308457  TIP3      3210            0.0000000000
     26981      3347  TIP3      OH2             4.0856230820      -16.6518498839      -31.4392755403  TIP3      3211            0.0000000000
     26982      3347  TIP3      H1              4.5741030609      -16.2064130757      -30.7212145699  TIP3      3211            0.0000000000
     26983      3347  TIP3      H2              4.1772322194      -15.9993216042      -32.1508191050  TIP3      3211            0.0000000000
     26984      3348  TIP3      OH2             4.3088060425      -16.3115538927      -28.2902694534  TIP3      3212            0.0000000000
     26985      3348  TIP3      H1              3.9186721976      -17.0433604476      -28.8027872015  TIP3      3212            0.0000000000
     26986      3348  TIP3      H2              4.4846631340      -16.7838324853      -27.4560443478  TIP3      3212            0.0000000000
     26987      3349  TIP3      OH2             2.8185323775      -20.5786970164      -23.5256913779  TIP3      3213            0.0000000000
     26988      3349  TIP3      H1              2.0046893081      -20.0628174647      -23.4791016549  TIP3      3213            0.0000000000
     26989      3349  TIP3      H2              3.4723804213      -19.9568327132      -23.1309935212  TIP3      3213            0.0000000000
     26990      3350  TIP3      OH2             3.2821076948      -21.9328968374      -38.3610461608  TIP3      3214            0.0000000000
     26991      3350  TIP3      H1              4.1342218625      -21.4743377658      -38.1989333898  TIP3      3214            0.0000000000
     26992      3350  TIP3      H2              3.3360820382      -22.6305243267      -37.6684444788  TIP3      3214            0.0000000000
     26993      3351  TIP3      OH2             3.8207489332      -23.7973314632      -36.3784751217  TIP3      3215            0.0000000000
     26994      3351  TIP3      H1              3.2191104369      -24.4564343963      -35.9630921218  TIP3      3215            0.0000000000
     26995      3351  TIP3      H2              4.5253057009      -23.7766822241      -35.7075551157  TIP3      3215            0.0000000000
     26996      3352  TIP3      OH2             3.7283209442      -21.2506324897      -31.6466229786  TIP3      3216            0.0000000000
     26997      3352  TIP3      H1              4.3889711621      -21.9738879974      -31.7980870556  TIP3      3216            0.0000000000
     26998      3352  TIP3      H2              4.0887786629      -20.5218106057      -32.1843680603  TIP3      3216            0.0000000000
     26999      3353  TIP3      OH2             2.6355415549      -18.5977585383      -29.1437361888  TIP3      3217            0.0000000000
     27000      3353  TIP3      H1              1.9852999226      -18.0703005648      -28.6292267561  TIP3      3217            0.0000000000
     27001      3353  TIP3      H2              2.1087014459      -18.9540377907      -29.8991487999  TIP3      3217            0.0000000000
     27002      3354  TIP3      OH2             4.4791274283      -23.9174255541      -40.1069110289  TIP3      3218            0.0000000000
     27003      3354  TIP3      H1              3.6045925065      -23.8263254702      -40.5156858260  TIP3      3218            0.0000000000
     27004      3354  TIP3      H2              4.4278724900      -23.2159509790      -39.4311671451  TIP3      3218            0.0000000000
     27005      3355  TIP3      OH2             3.9568202814      -26.9925503461      -41.5161068157  TIP3      3219            0.0000000000
     27006      3355  TIP3      H1              3.9972834925      -26.1254469607      -41.9887009815  TIP3      3219            0.0000000000
     27007      3355  TIP3      H2              3.0959013418      -27.3295772750      -41.7942047414  TIP3      3219            0.0000000000
     27008      3356  TIP3      OH2             2.2597049867      -25.6340494378      -35.0914949986  TIP3      3220            0.0000000000
     27009      3356  TIP3      H1              1.8058469540      -26.4284081715      -35.4288100909  TIP3      3220            0.0000000000
     27010      3356  TIP3      H2              1.7530932094      -25.4652333635      -34.2772568271  TIP3      3220            0.0000000000
     27011      3357  TIP3      OH2           -13.2674840337      -23.3367771441      -31.5570646371  TIP3      3221            0.0000000000
     27012      3357  TIP3      H1            -13.2520394448      -23.6925678443      -32.4771466761  TIP3      3221            0.0000000000
     27013      3357  TIP3      H2            -12.3508270838      -23.5549112517      -31.2640888401  TIP3      3221            0.0000000000
     27014      3358  TIP3      OH2             2.7889075417      -23.6301037643      -25.7456503376  TIP3      3222            0.0000000000
     27015      3358  TIP3      H1              3.2726706087      -24.4787537747      -25.7397285493  TIP3      3222            0.0000000000
     27016      3358  TIP3      H2              3.5174706347      -22.9875318566      -25.6865106142  TIP3      3222            0.0000000000
     27017      3359  TIP3      OH2             4.1937330396      -26.1215878122      -25.3657078712  TIP3      3223            0.0000000000
     27018      3359  TIP3      H1              3.3055689588      -26.5510157418      -25.4109831123  TIP3      3223            0.0000000000
     27019      3359  TIP3      H2              4.7143318560      -26.9192309141      -25.1252105924  TIP3      3223            0.0000000000
     27020      3360  TIP3      OH2             1.4118051385      -27.5032787720      -36.9340571840  TIP3      3224            0.0000000000
     27021      3360  TIP3      H1              1.7058843705      -28.4440498402      -36.9511578216  TIP3      3224            0.0000000000
     27022      3360  TIP3      H2              2.2051680307      -27.0910933103      -37.3463023516  TIP3      3224            0.0000000000
     27023      3361  TIP3      OH2             2.4609399365      -27.1165900814      -31.7179733985  TIP3      3225            0.0000000000
     27024      3361  TIP3      H1              3.3922566180      -27.0344746710      -31.3960572994  TIP3      3225            0.0000000000
     27025      3361  TIP3      H2              2.0896768396      -27.6999781337      -31.0445888927  TIP3      3225            0.0000000000
     27026      3362  TIP3      OH2             2.5043522741      -26.4640835450      -28.9403655198  TIP3      3226            0.0000000000
     27027      3362  TIP3      H1              1.6895353227      -26.2075126523      -28.4746400858  TIP3      3226            0.0000000000
     27028      3362  TIP3      H2              2.9564414593      -25.6025414083      -29.0359444916  TIP3      3226            0.0000000000
     27029      3363  TIP3      OH2           -13.4747588775      -28.3300942009      -25.4206666574  TIP3      3227            0.0000000000
     27030      3363  TIP3      H1            -12.5485612303      -28.4203761236      -25.1096597710  TIP3      3227            0.0000000000
     27031      3363  TIP3      H2            -13.9147288337      -29.0660400155      -24.9910684673  TIP3      3227            0.0000000000
     27032      3364  TIP3      OH2             2.2062227152      -30.0509674015      -36.8003192200  TIP3      3228            0.0000000000
     27033      3364  TIP3      H1              2.3723086488      -30.4163858177      -35.9118207459  TIP3      3228            0.0000000000
     27034      3364  TIP3      H2              1.4391515820      -30.6003652505      -37.0866059314  TIP3      3228            0.0000000000
     27035      3365  TIP3      OH2           -11.9392187872      -29.9890274211      -32.4072710321  TIP3      3229            0.0000000000
     27036      3365  TIP3      H1            -11.4870512218      -30.8042608521      -32.7222262363  TIP3      3229            0.0000000000
     27037      3365  TIP3      H2            -11.2125888093      -29.3346726827      -32.3940105663  TIP3      3229            0.0000000000
     27038      3366  TIP3      OH2           -13.8158545771      -26.9331669629      -31.2457713605  TIP3      3230            0.0000000000
     27039      3366  TIP3      H1            -13.4006951006      -27.1927345813      -32.0928851859  TIP3      3230            0.0000000000
     27040      3366  TIP3      H2            -13.0477476210      -26.5706163010      -30.7908074505  TIP3      3230            0.0000000000
     27041      3367  TIP3      OH2             3.3887331569      -30.7857518624      -24.8498698071  TIP3      3231            0.0000000000
     27042      3367  TIP3      H1              2.8409304398      -30.6380673487      -24.0400574990  TIP3      3231            0.0000000000
     27043      3367  TIP3      H2              2.7985298967      -30.4945627492      -25.5668181722  TIP3      3231            0.0000000000
     27044      3368  TIP3      OH2             4.2131528467      -30.8120989318      -40.5735946725  TIP3      3232            0.0000000000
     27045      3368  TIP3      H1              4.7131842424      -31.5094525582      -41.0320977503  TIP3      3232            0.0000000000
     27046      3368  TIP3      H2              4.7524350146      -30.0333096991      -40.7746754505  TIP3      3232            0.0000000000
     27047      3369  TIP3      OH2           -14.1346724200      -30.4526592719      -37.9714574766  TIP3      3233            0.0000000000
     27048      3369  TIP3      H1            -14.5051721363      -29.7716034881      -37.3954017079  TIP3      3233            0.0000000000
     27049      3369  TIP3      H2            -13.5236865851      -29.8860213274      -38.4983395024  TIP3      3233            0.0000000000
     27050      3370  TIP3      OH2             1.2554408166      -15.7779035303      -35.3507942263  TIP3      3234            0.0000000000
     27051      3370  TIP3      H1              2.0106078980      -15.9187951541      -35.9669995059  TIP3      3234            0.0000000000
     27052      3370  TIP3      H2              1.6654088390      -15.2166950452      -34.6642275799  TIP3      3234            0.0000000000
     27053      3371  TIP3      OH2           -13.8912685709      -32.0540343637      -29.9573295440  TIP3      3235            0.0000000000
     27054      3371  TIP3      H1            -14.0549818317      -32.0883188053      -28.9986513362  TIP3      3235            0.0000000000
     27055      3371  TIP3      H2            -14.5229852163      -31.3792265125      -30.2579333912  TIP3      3235            0.0000000000
     27056      3372  TIP3      OH2           -11.2988041407      -18.8066442979      -24.8551776007  TIP3      3236            0.0000000000
     27057      3372  TIP3      H1            -11.7387039073      -19.0529154621      -25.6918751069  TIP3      3236            0.0000000000
     27058      3372  TIP3      H2            -11.7739018705      -19.3687765920      -24.2081773571  TIP3      3236            0.0000000000
     27059      3373  TIP3      OH2            -8.7664676157      -17.3976349177      -28.5340010552  TIP3      3237            0.0000000000
     27060      3373  TIP3      H1             -8.6869872118      -16.4718970136      -28.8622630005  TIP3      3237            0.0000000000
     27061      3373  TIP3      H2             -7.8196199901      -17.6241381610      -28.5559164681  TIP3      3237            0.0000000000
     27062      3374  TIP3      OH2            -4.2223696717      -16.1681124396      -25.8679714265  TIP3      3238            0.0000000000
     27063      3374  TIP3      H1             -4.0136640307      -16.4231323036      -24.9411782499  TIP3      3238            0.0000000000
     27064      3374  TIP3      H2             -3.3302757556      -15.8339384979      -26.1415092573  TIP3      3238            0.0000000000
     27065      3375  TIP3      OH2            -1.9081307101      -15.0486439390      -26.3944729875  TIP3      3239            0.0000000000
     27066      3375  TIP3      H1             -1.1665781064      -14.8783298189      -26.9919349372  TIP3      3239            0.0000000000
     27067      3375  TIP3      H2             -1.6319956703      -14.6041707494      -25.5705691150  TIP3      3239            0.0000000000
     27068      3376  TIP3      OH2             2.3921319841      -32.6889018112      -27.6121653729  TIP3      3240            0.0000000000
     27069      3376  TIP3      H1              1.4273059092      -32.5373395998      -27.5615592407  TIP3      3240            0.0000000000
     27070      3376  TIP3      H2              2.5073351358      -33.3013065245      -28.3628288334  TIP3      3240            0.0000000000
     27071      3377  TIP3      OH2           -11.4499252593      -14.4101251390      -28.9347164733  TIP3      3241            0.0000000000
     27072      3377  TIP3      H1            -12.3032488155      -14.1383442188      -29.3426123751  TIP3      3241            0.0000000000
     27073      3377  TIP3      H2            -11.3447047640      -13.6845525871      -28.2967063007  TIP3      3241            0.0000000000
     27074      3378  TIP3      OH2            -8.7740887523      -14.9353771004      -29.5768976845  TIP3      3242            0.0000000000
     27075      3378  TIP3      H1             -9.7322891806      -14.7719448091      -29.3917996676  TIP3      3242            0.0000000000
     27076      3378  TIP3      H2             -8.7349340623      -14.6223463585      -30.4972286454  TIP3      3242            0.0000000000
     27077      3379  TIP3      OH2            -4.1766198115      -15.2637325382      -30.3396868245  TIP3      3243            0.0000000000
     27078      3379  TIP3      H1             -4.8589882806      -14.6229884822      -30.6047132320  TIP3      3243            0.0000000000
     27079      3379  TIP3      H2             -3.7117328358      -14.7229208468      -29.6618335344  TIP3      3243            0.0000000000
     27080      3380  TIP3      OH2            -1.6862263785      -16.7068787211      -29.1950167363  TIP3      3244            0.0000000000
     27081      3380  TIP3      H1             -2.4307090773      -16.4099299656      -29.7422892850  TIP3      3244            0.0000000000
     27082      3380  TIP3      H2             -1.0615151763      -15.9682693336      -29.3733294885  TIP3      3244            0.0000000000
     27083      3381  TIP3      OH2             0.4438908908      -15.0963940948      -29.6749181099  TIP3      3245            0.0000000000
     27084      3381  TIP3      H1              0.4696916982      -14.2115599345      -30.0739244887  TIP3      3245            0.0000000000
     27085      3381  TIP3      H2              0.8179762249      -15.6290014176      -30.4212507604  TIP3      3245            0.0000000000
     27086      3382  TIP3      OH2           -11.5550528199      -16.1540495525      -31.4892053829  TIP3      3246            0.0000000000
     27087      3382  TIP3      H1            -11.7763426452      -16.9388627079      -30.9568444482  TIP3      3246            0.0000000000
     27088      3382  TIP3      H2            -10.6516676240      -16.3801481990      -31.8133578249  TIP3      3246            0.0000000000
     27089      3383  TIP3      OH2            -9.3688284458      -16.7903786943      -32.9764359994  TIP3      3247            0.0000000000
     27090      3383  TIP3      H1             -9.5395133246      -17.7568926553      -33.0576834626  TIP3      3247            0.0000000000
     27091      3383  TIP3      H2             -8.4918985916      -16.8283102004      -32.5376538268  TIP3      3247            0.0000000000
     27092      3384  TIP3      OH2            -7.1647778621      -17.0269577672      -31.6118604871  TIP3      3248            0.0000000000
     27093      3384  TIP3      H1             -6.5251372653      -17.6689218441      -31.9434497821  TIP3      3248            0.0000000000
     27094      3384  TIP3      H2             -6.9002552347      -16.9975073164      -30.6608649948  TIP3      3248            0.0000000000
     27095      3385  TIP3      OH2            -3.2567329537      -31.1462965079      -32.8105246834  TIP3      3249            0.0000000000
     27096      3385  TIP3      H1             -4.1275068228      -31.1652982335      -32.3640751708  TIP3      3249            0.0000000000
     27097      3385  TIP3      H2             -3.1017136766      -32.1046063488      -32.8772591590  TIP3      3249            0.0000000000
     27098      3386  TIP3      OH2             2.2791594070      -33.0639879592      -32.4904220103  TIP3      3250            0.0000000000
     27099      3386  TIP3      H1              2.8576261265      -32.7420802633      -33.2082861336  TIP3      3250            0.0000000000
     27100      3386  TIP3      H2              1.4862541713      -33.3573325535      -32.9519754023  TIP3      3250            0.0000000000
     27101      3387  TIP3      OH2             3.6019539423      -31.5469839354      -34.7166808192  TIP3      3251            0.0000000000
     27102      3387  TIP3      H1              3.7928733854      -31.8279561006      -35.6405670707  TIP3      3251            0.0000000000
     27103      3387  TIP3      H2              4.0277243733      -30.6595073614      -34.6848293019  TIP3      3251            0.0000000000
     27104      3388  TIP3      OH2           -11.3947532154      -32.3533972122      -35.8310121733  TIP3      3252            0.0000000000
     27105      3388  TIP3      H1            -12.2232172207      -32.4532409282      -36.3395962637  TIP3      3252            0.0000000000
     27106      3388  TIP3      H2            -10.8044994594      -32.9732161282      -36.3112543544  TIP3      3252            0.0000000000
     27107      3389  TIP3      OH2           -12.6191725946      -32.5323114214      -38.8406377091  TIP3      3253            0.0000000000
     27108      3389  TIP3      H1            -11.9646856609      -32.0218636550      -39.3338306505  TIP3      3253            0.0000000000
     27109      3389  TIP3      H2            -13.1805525103      -31.8333267385      -38.4305062909  TIP3      3253            0.0000000000
     27110      3390  TIP3      OH2            -7.1818987132      -32.3311376691      -36.3114397275  TIP3      3254            0.0000000000
     27111      3390  TIP3      H1             -6.2375415767      -32.1665658081      -36.4461670283  TIP3      3254            0.0000000000
     27112      3390  TIP3      H2             -7.1090060016      -33.0518293073      -35.6719440386  TIP3      3254            0.0000000000
     27113      3391  TIP3      OH2            -1.3597503854      -32.6231550497      -34.8092029623  TIP3      3255            0.0000000000
     27114      3391  TIP3      H1             -1.9534146012      -31.9073538692      -35.0667956750  TIP3      3255            0.0000000000
     27115      3391  TIP3      H2             -1.8525976449      -33.0823591201      -34.0988291077  TIP3      3255            0.0000000000
     27116      3392  TIP3      OH2             0.1893935967      -31.5898047259      -37.6584071826  TIP3      3256            0.0000000000
     27117      3392  TIP3      H1             -0.5540725350      -31.4524438213      -38.2672113503  TIP3      3256            0.0000000000
     27118      3392  TIP3      H2              0.0759823729      -32.5075489193      -37.3284813643  TIP3      3256            0.0000000000
     27119      3393  TIP3      OH2           -12.4856888173      -16.7140517321      -38.7943598062  TIP3      3257            0.0000000000
     27120      3393  TIP3      H1            -13.4206677067      -16.6475839301      -39.0658869665  TIP3      3257            0.0000000000
     27121      3393  TIP3      H2            -12.2656587276      -15.7546578969      -38.8286355677  TIP3      3257            0.0000000000
     27122      3394  TIP3      OH2           -10.7596464997      -31.5635790832      -41.1629001101  TIP3      3258            0.0000000000
     27123      3394  TIP3      H1            -10.2318961157      -31.1252749107      -41.8573941953  TIP3      3258            0.0000000000
     27124      3394  TIP3      H2            -10.1147128051      -31.6125561357      -40.4330522359  TIP3      3258            0.0000000000
     27125      3395  TIP3      OH2            -5.5916383770      -30.2355147600      -38.5205507360  TIP3      3259            0.0000000000
     27126      3395  TIP3      H1             -5.3806948204      -31.0666077183      -38.0650857870  TIP3      3259            0.0000000000
     27127      3395  TIP3      H2             -5.1089581167      -29.5899503101      -37.9583595842  TIP3      3259            0.0000000000
     27128      3396  TIP3      OH2            -3.5913296160      -15.2112004471      -40.6320191393  TIP3      3260            0.0000000000
     27129      3396  TIP3      H1             -2.6131457471      -15.1505367197      -40.7042442038  TIP3      3260            0.0000000000
     27130      3396  TIP3      H2             -3.7461633738      -16.0345568124      -41.1215637676  TIP3      3260            0.0000000000
     27131      3397  TIP3      OH2             3.0911098599      -16.2055550558      -37.1984582602  TIP3      3261            0.0000000000
     27132      3397  TIP3      H1              2.6720774322      -16.9069391182      -37.7603060046  TIP3      3261            0.0000000000
     27133      3397  TIP3      H2              3.0235328658      -15.4664372044      -37.8441638807  TIP3      3261            0.0000000000
     27134      3398  TIP3      OH2           -11.8880723108      -31.7211312858      -26.3593968051  TIP3      3262            0.0000000000
     27135      3398  TIP3      H1            -12.2726635581      -32.5544984013      -26.6990081601  TIP3      3262            0.0000000000
     27136      3398  TIP3      H2            -11.2682851494      -32.0635464177      -25.6962973432  TIP3      3262            0.0000000000
     27137      3399  TIP3      OH2            -9.4874297378       33.4479256504      -24.9099593394  TIP3      3263            0.0000000000
     27138      3399  TIP3      H1             -8.6730286548       33.4000240217      -24.3803697410  TIP3      3263            0.0000000000
     27139      3399  TIP3      H2             -9.9507142567       32.6005811029      -24.7267733713  TIP3      3263            0.0000000000
     27140      3400  TIP3      OH2           -10.2916312212      -15.2685812343      -41.5242678832  TIP3      3264            0.0000000000
     27141      3400  TIP3      H1            -11.0315243620      -14.6476696322      -41.4398513839  TIP3      3264            0.0000000000
     27142      3400  TIP3      H2            -10.5360229620      -15.9510780149      -40.8888465727  TIP3      3264            0.0000000000
     27143      3401  TIP3      OH2            -2.2382153102      -32.6620565819      -24.0176386830  TIP3      3265            0.0000000000
     27144      3401  TIP3      H1             -2.7030377000      -32.6503403150      -23.1603889935  TIP3      3265            0.0000000000
     27145      3401  TIP3      H2             -2.4135992426      -33.5552569180      -24.3345423456  TIP3      3265            0.0000000000
     27146      3402  TIP3      OH2             2.7943027792      -17.3932029563      -25.6267585236  TIP3      3266            0.0000000000
     27147      3402  TIP3      H1              2.1004008060      -17.4159135413      -26.3264651611  TIP3      3266            0.0000000000
     27148      3402  TIP3      H2              2.7261196520      -16.4731386787      -25.3389292823  TIP3      3266            0.0000000000
     27149      3403  TIP3      OH2            17.0737707879      -23.3522005033      -35.5878078966  TIP3      3267            0.0000000000
     27150      3403  TIP3      H1             16.8489396436      -22.4262723184      -35.3665637125  TIP3      3267            0.0000000000
     27151      3403  TIP3      H2             16.3908760467      -23.5594227890      -36.2500395118  TIP3      3267            0.0000000000
     27152      3404  TIP3      OH2            15.8376374232      -24.5516983732      -32.2653972282  TIP3      3268            0.0000000000
     27153      3404  TIP3      H1             15.7386940690      -24.6728883117      -31.3018703807  TIP3      3268            0.0000000000
     27154      3404  TIP3      H2             14.9227930326      -24.5521543023      -32.5987030518  TIP3      3268            0.0000000000
     27155      3405  TIP3      OH2             7.6940234992      -24.3907681608      -30.6340140346  TIP3      3269            0.0000000000
     27156      3405  TIP3      H1              7.6996185170      -24.9637092186      -29.8477597122  TIP3      3269            0.0000000000
     27157      3405  TIP3      H2              8.6100749429      -24.4904875494      -30.9701585985  TIP3      3269            0.0000000000
     27158      3406  TIP3      OH2            19.2967471522      -21.3288202793      -33.5594444144  TIP3      3270            0.0000000000
     27159      3406  TIP3      H1             18.9963300805      -22.0748715453      -33.0158405008  TIP3      3270            0.0000000000
     27160      3406  TIP3      H2             19.3315554414      -20.5932705572      -32.9174257576  TIP3      3270            0.0000000000
     27161      3407  TIP3      OH2             9.1291514378      -19.6129200731      -32.7809831096  TIP3      3271            0.0000000000
     27162      3407  TIP3      H1              8.7535902515      -20.4965706833      -32.9635577292  TIP3      3271            0.0000000000
     27163      3407  TIP3      H2             10.0256805523      -19.8934907226      -32.5036958584  TIP3      3271            0.0000000000
     27164      3408  TIP3      OH2             5.3835013678      -26.9237984635      -36.3570910250  TIP3      3272            0.0000000000
     27165      3408  TIP3      H1              5.1099988968      -26.3454720533      -35.6265875989  TIP3      3272            0.0000000000
     27166      3408  TIP3      H2              4.5240433180      -27.2673644622      -36.6537605273  TIP3      3272            0.0000000000
     27167      3409  TIP3      OH2             5.7993635182      -24.3843857732      -34.2748579499  TIP3      3273            0.0000000000
     27168      3409  TIP3      H1              6.2565208584      -25.2148691329      -34.0019126253  TIP3      3273            0.0000000000
     27169      3409  TIP3      H2              6.5097260879      -23.8553611702      -34.6595910131  TIP3      3273            0.0000000000
     27170      3410  TIP3      OH2            16.6586555599      -15.9575249716      -33.9859861383  TIP3      3274            0.0000000000
     27171      3410  TIP3      H1             17.3878125606      -16.5730313510      -34.2197906439  TIP3      3274            0.0000000000
     27172      3410  TIP3      H2             16.1743984654      -16.5070423915      -33.3626049927  TIP3      3274            0.0000000000
     27173      3411  TIP3      OH2            14.0427620219      -22.0865816759      -31.2606772162  TIP3      3275            0.0000000000
     27174      3411  TIP3      H1             14.2060110362      -21.5971894724      -32.0768919364  TIP3      3275            0.0000000000
     27175      3411  TIP3      H2             14.9521627385      -22.2332626520      -30.9257502811  TIP3      3275            0.0000000000
     27176      3412  TIP3      OH2            22.1808347152      -30.3848484703      -31.0622283367  TIP3      3276            0.0000000000
     27177      3412  TIP3      H1             22.5136947235      -29.5604061825      -30.6565529969  TIP3      3276            0.0000000000
     27178      3412  TIP3      H2             22.6776523955      -30.4750692379      -31.8946288690  TIP3      3276            0.0000000000
     27179      3413  TIP3      OH2            17.2767606178      -27.1218570397      -30.9508909425  TIP3      3277            0.0000000000
     27180      3413  TIP3      H1             17.5652949265      -28.0536012240      -30.9520870520  TIP3      3277            0.0000000000
     27181      3413  TIP3      H2             17.0282770852      -27.0146846026      -31.8893937566  TIP3      3277            0.0000000000
     27182      3414  TIP3      OH2            10.4822397708      -29.3048856220      -34.2294388791  TIP3      3278            0.0000000000
     27183      3414  TIP3      H1             10.6475062261      -28.4736468148      -34.7284910533  TIP3      3278            0.0000000000
     27184      3414  TIP3      H2              9.9642948009      -29.8123870313      -34.8888837728  TIP3      3278            0.0000000000
     27185      3415  TIP3      OH2            17.5709372076      -29.2431709725      -35.6505567664  TIP3      3279            0.0000000000
     27186      3415  TIP3      H1             18.1132031756      -29.1292102213      -34.8318719620  TIP3      3279            0.0000000000
     27187      3415  TIP3      H2             17.5760569032      -28.3468936217      -36.0124390170  TIP3      3279            0.0000000000
     27188      3416  TIP3      OH2             6.8292524840      -26.7215272310      -33.3334221124  TIP3      3280            0.0000000000
     27189      3416  TIP3      H1              7.4140713543      -27.1793761639      -32.6975919659  TIP3      3280            0.0000000000
     27190      3416  TIP3      H2              7.1678338495      -27.0865410626      -34.1815167716  TIP3      3280            0.0000000000
     27191      3417  TIP3      OH2            11.5736166437      -24.9900822281      -33.8365708632  TIP3      3281            0.0000000000
     27192      3417  TIP3      H1             12.4074900848      -25.4156607298      -33.5396808842  TIP3      3281            0.0000000000
     27193      3417  TIP3      H2             11.2529634657      -25.7132302768      -34.4189987715  TIP3      3281            0.0000000000
     27194      3418  TIP3      OH2            22.6838908358      -28.5394479775      -29.0444160888  TIP3      3282            0.0000000000
     27195      3418  TIP3      H1             22.1136513882      -27.7427408346      -29.0944302614  TIP3      3282            0.0000000000
     27196      3418  TIP3      H2             22.8148137611      -28.6124966675      -28.0915280077  TIP3      3282            0.0000000000
     27197      3419  TIP3      OH2             9.4251432798      -30.1212984880      -30.2240630116  TIP3      3283            0.0000000000
     27198      3419  TIP3      H1              9.0934523963      -29.5198866373      -30.9304430749  TIP3      3283            0.0000000000
     27199      3419  TIP3      H2              8.7703016034      -29.9900389618      -29.5096433105  TIP3      3283            0.0000000000
     27200      3420  TIP3      OH2            16.1826316008      -20.8663262221      -36.7335792578  TIP3      3284            0.0000000000
     27201      3420  TIP3      H1             15.9893824659      -20.8643108341      -37.6902312427  TIP3      3284            0.0000000000
     27202      3420  TIP3      H2             15.7699929037      -20.0230046488      -36.4418638742  TIP3      3284            0.0000000000
     27203      3421  TIP3      OH2            11.3791174194      -22.4613661719      -30.2170084747  TIP3      3285            0.0000000000
     27204      3421  TIP3      H1             10.8751899636      -21.6785529604      -29.8829025162  TIP3      3285            0.0000000000
     27205      3421  TIP3      H2             12.1050224135      -22.0356133053      -30.7135462199  TIP3      3285            0.0000000000
     27206      3422  TIP3      OH2            19.4094485693      -29.0273697839      -33.7395486202  TIP3      3286            0.0000000000
     27207      3422  TIP3      H1             19.7885077775      -29.7569597142      -33.2249150871  TIP3      3286            0.0000000000
     27208      3422  TIP3      H2             20.2112239684      -28.5441779263      -33.9911802393  TIP3      3286            0.0000000000
     27209      3423  TIP3      OH2             8.7759528507      -28.2618178663      -32.1241314975  TIP3      3287            0.0000000000
     27210      3423  TIP3      H1              9.3355755742      -27.6307547037      -31.6073856399  TIP3      3287            0.0000000000
     27211      3423  TIP3      H2              9.3579453702      -28.4526709356      -32.8903246935  TIP3      3287            0.0000000000
     27212      3424  TIP3      OH2            10.2425827776      -20.2064140653      -29.3423133816  TIP3      3288            0.0000000000
     27213      3424  TIP3      H1             10.0723083106      -19.3316922034      -29.6954689003  TIP3      3288            0.0000000000
     27214      3424  TIP3      H2              9.3861841031      -20.3864348110      -28.8756472739  TIP3      3288            0.0000000000
     27215      3425  TIP3      OH2             5.9475034609      -21.3110030996      -38.4044313817  TIP3      3289            0.0000000000
     27216      3425  TIP3      H1              5.9027985679      -20.9472991293      -39.3212896364  TIP3      3289            0.0000000000
     27217      3425  TIP3      H2              6.1020951116      -20.4923517870      -37.8687077871  TIP3      3289            0.0000000000
     27218      3426  TIP3      OH2            19.0416929801      -18.8898812163      -32.2013993021  TIP3      3290            0.0000000000
     27219      3426  TIP3      H1             18.7986831071      -18.5846502708      -33.1022269616  TIP3      3290            0.0000000000
     27220      3426  TIP3      H2             19.5527176201      -18.0978626561      -31.9484310547  TIP3      3290            0.0000000000
     27221      3427  TIP3      OH2            19.6386054836      -30.4335811096      -29.8739095680  TIP3      3291            0.0000000000
     27222      3427  TIP3      H1             18.9546911956      -30.5029841652      -30.5830688021  TIP3      3291            0.0000000000
     27223      3427  TIP3      H2             20.4916810254      -30.4940268949      -30.3523504682  TIP3      3291            0.0000000000
     27224      3428  TIP3      OH2            12.9726743553      -32.2951191287      -32.9855556246  TIP3      3292            0.0000000000
     27225      3428  TIP3      H1             12.9450041014      -33.2562895465      -33.1239481210  TIP3      3292            0.0000000000
     27226      3428  TIP3      H2             12.0798512716      -32.1005956338      -32.6157070912  TIP3      3292            0.0000000000
     27227      3429  TIP3      OH2            18.6227688912      -17.6434019336      -34.6038231531  TIP3      3293            0.0000000000
     27228      3429  TIP3      H1             18.6022953740      -18.2486869746      -35.3845852489  TIP3      3293            0.0000000000
     27229      3429  TIP3      H2             19.2108637778      -16.9126623096      -34.9330995847  TIP3      3293            0.0000000000
     27230      3430  TIP3      OH2            19.0066121340      -19.5847556651      -36.4049955952  TIP3      3294            0.0000000000
     27231      3430  TIP3      H1             18.7526434468      -20.1592808742      -37.1439319101  TIP3      3294            0.0000000000
     27232      3430  TIP3      H2             19.0733901481      -20.2277457583      -35.6818357930  TIP3      3294            0.0000000000
     27233      3431  TIP3      OH2            21.1326261754      -20.9605300783      -27.7857796521  TIP3      3295            0.0000000000
     27234      3431  TIP3      H1             21.1846763862      -21.7390123256      -28.3781546754  TIP3      3295            0.0000000000
     27235      3431  TIP3      H2             21.0524584208      -20.2442598553      -28.4506788784  TIP3      3295            0.0000000000
     27236      3432  TIP3      OH2            15.4427725885      -24.1256927930      -38.0425264987  TIP3      3296            0.0000000000
     27237      3432  TIP3      H1             14.8582055837      -23.3437457538      -38.1502928750  TIP3      3296            0.0000000000
     27238      3432  TIP3      H2             16.0895990372      -24.0019490072      -38.7615268301  TIP3      3296            0.0000000000
     27239      3433  TIP3      OH2            15.3197519719      -24.8641418984      -41.1230829336  TIP3      3297            0.0000000000
     27240      3433  TIP3      H1             16.1581028175      -24.6797056287      -40.6730391593  TIP3      3297            0.0000000000
     27241      3433  TIP3      H2             15.4172484063      -25.7937619530      -41.3831519884  TIP3      3297            0.0000000000
     27242      3434  TIP3      OH2            22.4254057136      -24.3456242213      -29.6198624328  TIP3      3298            0.0000000000
     27243      3434  TIP3      H1             21.6508992509      -23.7728668464      -29.8371381799  TIP3      3298            0.0000000000
     27244      3434  TIP3      H2             23.0860488944      -23.9703570773      -30.2410969753  TIP3      3298            0.0000000000
     27245      3435  TIP3      OH2            19.2153353580      -24.0601019570      -37.0994573509  TIP3      3299            0.0000000000
     27246      3435  TIP3      H1             18.4131897260      -23.8162812054      -36.5714148422  TIP3      3299            0.0000000000
     27247      3435  TIP3      H2             19.7266811959      -24.5336950170      -36.4149035032  TIP3      3299            0.0000000000
     27248      3436  TIP3      OH2            18.5800481459      -25.6882399209      -27.7622363026  TIP3      3300            0.0000000000
     27249      3436  TIP3      H1             18.4971284771      -24.7279770475      -27.6341238383  TIP3      3300            0.0000000000
     27250      3436  TIP3      H2             17.8780207693      -25.8279625458      -28.4122925508  TIP3      3300            0.0000000000
     27251      3437  TIP3      OH2            10.1396809827      -23.4319985616      -35.4109511402  TIP3      3301            0.0000000000
     27252      3437  TIP3      H1             10.2249785150      -23.8794875509      -36.2805476442  TIP3      3301            0.0000000000
     27253      3437  TIP3      H2             10.7443691634      -23.9569417700      -34.8423301638  TIP3      3301            0.0000000000
     27254      3438  TIP3      OH2            11.8948441801      -20.0251971437      -32.9077581074  TIP3      3302            0.0000000000
     27255      3438  TIP3      H1             11.6019914204      -19.6733967917      -33.7743962995  TIP3      3302            0.0000000000
     27256      3438  TIP3      H2             12.3161501296      -20.8378396467      -33.2168908366  TIP3      3302            0.0000000000
     27257      3439  TIP3      OH2            10.2577466839      -24.4844569289      -31.5043059480  TIP3      3303            0.0000000000
     27258      3439  TIP3      H1             10.7157888942      -24.4355283710      -32.3758223798  TIP3      3303            0.0000000000
     27259      3439  TIP3      H2             10.6829059440      -23.7367070413      -31.0323441634  TIP3      3303            0.0000000000
     27260      3440  TIP3      OH2            16.3975982682      -19.1447119253      -30.9917611877  TIP3      3304            0.0000000000
     27261      3440  TIP3      H1             16.8367962274      -18.4472351503      -30.4739120616  TIP3      3304            0.0000000000
     27262      3440  TIP3      H2             17.1648065031      -19.6241832916      -31.3578982816  TIP3      3304            0.0000000000
     27263      3441  TIP3      OH2            11.6767042821      -20.1011465850      -26.9046619995  TIP3      3305            0.0000000000
     27264      3441  TIP3      H1             11.0143319828      -19.5378196063      -26.4289571155  TIP3      3305            0.0000000000
     27265      3441  TIP3      H2             11.2199937749      -20.2107271998      -27.7636743777  TIP3      3305            0.0000000000
     27266      3442  TIP3      OH2            17.7477082597      -24.5538782398      -39.3229508227  TIP3      3306            0.0000000000
     27267      3442  TIP3      H1             18.3473210821      -24.3916529081      -38.5524890751  TIP3      3306            0.0000000000
     27268      3442  TIP3      H2             18.1633175871      -24.0043762891      -40.0202574728  TIP3      3306            0.0000000000
     27269      3443  TIP3      OH2             8.5371223606      -23.9295422350      -27.4390744816  TIP3      3307            0.0000000000
     27270      3443  TIP3      H1              8.5369458294      -23.2459995031      -26.7493247676  TIP3      3307            0.0000000000
     27271      3443  TIP3      H2              7.6688199459      -24.3588957170      -27.2658722030  TIP3      3307            0.0000000000
     27272      3444  TIP3      OH2            14.8629318367      -18.3794200448      -36.4163052205  TIP3      3308            0.0000000000
     27273      3444  TIP3      H1             14.9831263295      -17.6395000764      -35.8099422912  TIP3      3308            0.0000000000
     27274      3444  TIP3      H2             14.4415731342      -17.9704067978      -37.1858834760  TIP3      3308            0.0000000000
     27275      3445  TIP3      OH2             9.9774017447      -18.4027124042      -25.7357192980  TIP3      3309            0.0000000000
     27276      3445  TIP3      H1             10.1184504900      -17.7221821483      -26.4262012201  TIP3      3309            0.0000000000
     27277      3445  TIP3      H2              9.0144441342      -18.4972062341      -25.7370336120  TIP3      3309            0.0000000000
     27278      3446  TIP3      OH2            21.1628311885      -32.5906649156      -39.7109120680  TIP3      3310            0.0000000000
     27279      3446  TIP3      H1             20.6923091973      -31.9810609978      -39.1099778666  TIP3      3310            0.0000000000
     27280      3446  TIP3      H2             21.8795949300      -31.9825621359      -40.0009169893  TIP3      3310            0.0000000000
     27281      3447  TIP3      OH2             9.5375121690      -24.5892731693      -38.0181189282  TIP3      3311            0.0000000000
     27282      3447  TIP3      H1              9.0922237311      -23.7972814571      -38.3946075619  TIP3      3311            0.0000000000
     27283      3447  TIP3      H2              8.8129556080      -25.2148855475      -37.9115907467  TIP3      3311            0.0000000000
     27284      3448  TIP3      OH2            22.7033991730      -18.5494710142      -40.9860894487  TIP3      3312            0.0000000000
     27285      3448  TIP3      H1             22.8633656990      -17.5845805423      -40.8849080156  TIP3      3312            0.0000000000
     27286      3448  TIP3      H2             23.6027641387      -18.8932060236      -41.0831352949  TIP3      3312            0.0000000000
     27287      3449  TIP3      OH2             5.8994586995      -21.5243601100      -28.6736168332  TIP3      3313            0.0000000000
     27288      3449  TIP3      H1              5.3056219114      -21.4308810470      -29.4296527951  TIP3      3313            0.0000000000
     27289      3449  TIP3      H2              6.2650308004      -22.4072366477      -28.8543790294  TIP3      3313            0.0000000000
     27290      3450  TIP3      OH2             5.1717044526      -19.0550638814      -32.3361891162  TIP3      3314            0.0000000000
     27291      3450  TIP3      H1              5.7154505663      -19.3308635583      -31.5849315685  TIP3      3314            0.0000000000
     27292      3450  TIP3      H2              4.6652578313      -18.3105341421      -31.9427625564  TIP3      3314            0.0000000000
     27293      3451  TIP3      OH2            23.5681830028      -18.5465803293      -26.3524272333  TIP3      3315            0.0000000000
     27294      3451  TIP3      H1             23.2828462514      -19.3824162771      -26.7398411990  TIP3      3315            0.0000000000
     27295      3451  TIP3      H2             22.7466267327      -18.3154011710      -25.8516454945  TIP3      3315            0.0000000000
     27296      3452  TIP3      OH2            13.9678687217      -18.7108958255      -27.0669413209  TIP3      3316            0.0000000000
     27297      3452  TIP3      H1             14.0641829363      -17.9169487490      -26.4955258618  TIP3      3316            0.0000000000
     27298      3452  TIP3      H2             13.0886682183      -19.0795731868      -26.8133529584  TIP3      3316            0.0000000000
     27299      3453  TIP3      OH2            14.8763180600      -15.2352610170      -37.9503149428  TIP3      3317            0.0000000000
     27300      3453  TIP3      H1             14.8494887362      -15.1172142461      -38.9269910181  TIP3      3317            0.0000000000
     27301      3453  TIP3      H2             15.0644413300      -14.3487212412      -37.5924689115  TIP3      3317            0.0000000000
     27302      3454  TIP3      OH2             8.5877943692      -16.8041472592      -35.4517039933  TIP3      3318            0.0000000000
     27303      3454  TIP3      H1              9.0382360607      -16.8176228045      -34.5671882585  TIP3      3318            0.0000000000
     27304      3454  TIP3      H2              7.7762925126      -17.2882505293      -35.2372657583  TIP3      3318            0.0000000000
     27305      3455  TIP3      OH2            17.8662062929      -15.9696107637      -41.0168412797  TIP3      3319            0.0000000000
     27306      3455  TIP3      H1             18.5074652879      -16.6374713085      -41.3473810058  TIP3      3319            0.0000000000
     27307      3455  TIP3      H2             18.2823984245      -15.7115921962      -40.1734507178  TIP3      3319            0.0000000000
     27308      3456  TIP3      OH2            17.6216210025      -15.9176072846      -37.6282682325  TIP3      3320            0.0000000000
     27309      3456  TIP3      H1             16.6648976696      -15.8603162116      -37.8272095186  TIP3      3320            0.0000000000
     27310      3456  TIP3      H2             17.7266830137      -16.8467864747      -37.3937457280  TIP3      3320            0.0000000000
     27311      3457  TIP3      OH2            20.6492098240      -26.6903652153      -26.0686366602  TIP3      3321            0.0000000000
     27312      3457  TIP3      H1             19.9524726314      -26.3298791303      -26.6532424178  TIP3      3321            0.0000000000
     27313      3457  TIP3      H2             20.6744253017      -27.6231307617      -26.3657328153  TIP3      3321            0.0000000000
     27314      3458  TIP3      OH2             8.1917314413      -20.2599412608      -27.6174685663  TIP3      3322            0.0000000000
     27315      3458  TIP3      H1              8.4984883891      -20.5546568977      -26.7261624869  TIP3      3322            0.0000000000
     27316      3458  TIP3      H2              7.2454522966      -20.5028333210      -27.5515716246  TIP3      3322            0.0000000000
     27317      3459  TIP3      OH2            10.6104762433      -31.9143611007      -31.7682792240  TIP3      3323            0.0000000000
     27318      3459  TIP3      H1              9.8398530460      -31.7953609261      -32.3695601105  TIP3      3323            0.0000000000
     27319      3459  TIP3      H2             10.3267560257      -31.3157905113      -31.0491421956  TIP3      3323            0.0000000000
     27320      3460  TIP3      OH2            15.3478939545      -32.1340012326      -28.2809162981  TIP3      3324            0.0000000000
     27321      3460  TIP3      H1             15.6255443117      -33.0421977867      -28.1554085299  TIP3      3324            0.0000000000
     27322      3460  TIP3      H2             14.4136644147      -32.1365913253      -28.0181331805  TIP3      3324            0.0000000000
     27323      3461  TIP3      OH2            17.8180208371      -28.4399027829      -26.7230388856  TIP3      3325            0.0000000000
     27324      3461  TIP3      H1             17.0359425936      -28.5808409751      -26.1501049745  TIP3      3325            0.0000000000
     27325      3461  TIP3      H2             17.9376975197      -27.4811821555      -26.6944721774  TIP3      3325            0.0000000000
     27326      3462  TIP3      OH2            18.9892816952      -23.1085921728      -41.2619035508  TIP3      3326            0.0000000000
     27327      3462  TIP3      H1             19.2540687579      -22.7632990189      -42.1280400610  TIP3      3326            0.0000000000
     27328      3462  TIP3      H2             19.5020784951      -22.5363641091      -40.6618417731  TIP3      3326            0.0000000000
     27329      3463  TIP3      OH2            14.7656256580      -29.4993531926      -40.9476332916  TIP3      3327            0.0000000000
     27330      3463  TIP3      H1             14.2703679831      -29.8443649626      -40.1635723662  TIP3      3327            0.0000000000
     27331      3463  TIP3      H2             14.9340756180      -30.3223987410      -41.4217411028  TIP3      3327            0.0000000000
     27332      3464  TIP3      OH2            10.6838622928      -27.0557603355      -30.6595784379  TIP3      3328            0.0000000000
     27333      3464  TIP3      H1             10.1865041828      -26.9722972783      -29.8232375707  TIP3      3328            0.0000000000
     27334      3464  TIP3      H2             10.6061989376      -26.1492205964      -31.0113855677  TIP3      3328            0.0000000000
     27335      3465  TIP3      OH2            10.6469598858      -27.0046941885      -35.4520429393  TIP3      3329            0.0000000000
     27336      3465  TIP3      H1              9.6913129166      -27.0075225009      -35.6921969873  TIP3      3329            0.0000000000
     27337      3465  TIP3      H2             11.0337176903      -27.1301942241      -36.3462905297  TIP3      3329            0.0000000000
     27338      3466  TIP3      OH2            16.4370198986      -26.2398138330      -36.8243261238  TIP3      3330            0.0000000000
     27339      3466  TIP3      H1             15.9436412624      -25.4868053382      -37.2431380723  TIP3      3330            0.0000000000
     27340      3466  TIP3      H2             17.0957715844      -26.4001404406      -37.5165200712  TIP3      3330            0.0000000000
     27341      3467  TIP3      OH2            14.6015876279      -25.8034742781      -25.3120410697  TIP3      3331            0.0000000000
     27342      3467  TIP3      H1             14.1379825243      -26.6590042812      -25.1895172964  TIP3      3331            0.0000000000
     27343      3467  TIP3      H2             15.3650358933      -25.9286175964      -24.7169607494  TIP3      3331            0.0000000000
     27344      3468  TIP3      OH2            16.8645521308      -26.7322263870      -33.8027869909  TIP3      3332            0.0000000000
     27345      3468  TIP3      H1             16.6102937129      -25.8188173194      -34.0339143681  TIP3      3332            0.0000000000
     27346      3468  TIP3      H2             16.9064924818      -27.1195287077      -34.6864915516  TIP3      3332            0.0000000000
     27347      3469  TIP3      OH2             7.9887055918      -27.0348579091      -29.5288122580  TIP3      3333            0.0000000000
     27348      3469  TIP3      H1              8.1151092708      -26.8382840508      -28.5868943420  TIP3      3333            0.0000000000
     27349      3469  TIP3      H2              7.5098720526      -27.8804823076      -29.4974412141  TIP3      3333            0.0000000000
     27350      3470  TIP3      OH2            11.4013168532      -29.3886583089      -41.5301199573  TIP3      3334            0.0000000000
     27351      3470  TIP3      H1             11.1279035714      -29.9513182048      -40.7763459560  TIP3      3334            0.0000000000
     27352      3470  TIP3      H2             11.5977241278      -28.5543042645      -41.0806451785  TIP3      3334            0.0000000000
     27353      3471  TIP3      OH2             5.1800841818      -29.3402279067      -34.5511596186  TIP3      3335            0.0000000000
     27354      3471  TIP3      H1              5.7432114205      -29.5479458504      -33.7795732788  TIP3      3335            0.0000000000
     27355      3471  TIP3      H2              5.7111860008      -29.6437512762      -35.2924270881  TIP3      3335            0.0000000000
     27356      3472  TIP3      OH2             6.4387400691      -28.5950942620      -38.9924392801  TIP3      3336            0.0000000000
     27357      3472  TIP3      H1              6.8670838226      -28.1549564841      -39.7524372001  TIP3      3336            0.0000000000
     27358      3472  TIP3      H2              6.1271771126      -27.8170653904      -38.5060265557  TIP3      3336            0.0000000000
     27359      3473  TIP3      OH2            16.1048606453      -25.0355143041      -29.5827810196  TIP3      3337            0.0000000000
     27360      3473  TIP3      H1             16.6972276362      -25.6504833006      -30.0778368579  TIP3      3337            0.0000000000
     27361      3473  TIP3      H2             15.6278816059      -25.6777682330      -28.9991597044  TIP3      3337            0.0000000000
     27362      3474  TIP3      OH2            13.4566536815      -29.4669505042      -34.6372827971  TIP3      3338            0.0000000000
     27363      3474  TIP3      H1             12.5531211312      -29.7651077096      -34.4041454067  TIP3      3338            0.0000000000
     27364      3474  TIP3      H2             13.9961103667      -29.8028690494      -33.8977748525  TIP3      3338            0.0000000000
     27365      3475  TIP3      OH2             7.9032886321      -27.4951799083      -35.7637410779  TIP3      3339            0.0000000000
     27366      3475  TIP3      H1              6.9963089261      -27.3899639539      -36.1274452130  TIP3      3339            0.0000000000
     27367      3475  TIP3      H2              8.1289529046      -28.3993210609      -36.0756811198  TIP3      3339            0.0000000000
     27368      3476  TIP3      OH2            11.0497290830      -27.6698056624      -38.0900331205  TIP3      3340            0.0000000000
     27369      3476  TIP3      H1             12.0221149429      -27.6678664438      -38.1346762739  TIP3      3340            0.0000000000
     27370      3476  TIP3      H2             10.7724071056      -27.0415954807      -38.7841733144  TIP3      3340            0.0000000000
     27371      3477  TIP3      OH2            17.2695939536      -30.2859855368      -31.2524950144  TIP3      3341            0.0000000000
     27372      3477  TIP3      H1             16.8838536480      -29.8925696083      -30.4464382167  TIP3      3341            0.0000000000
     27373      3477  TIP3      H2             16.5184252509      -30.2875251718      -31.8775669113  TIP3      3341            0.0000000000
     27374      3478  TIP3      OH2             9.9965528235      -26.1898693881      -40.7339625203  TIP3      3342            0.0000000000
     27375      3478  TIP3      H1              9.4321220469      -26.3391993771      -41.5169785376  TIP3      3342            0.0000000000
     27376      3478  TIP3      H2             10.8936525008      -26.0983510501      -41.1165307271  TIP3      3342            0.0000000000
     27377      3479  TIP3      OH2            20.5751310922      -14.7211805636      -25.0124184678  TIP3      3343            0.0000000000
     27378      3479  TIP3      H1             20.7710850178      -14.0430637730      -25.6789847975  TIP3      3343            0.0000000000
     27379      3479  TIP3      H2             21.2433032667      -14.4754442224      -24.3465860637  TIP3      3343            0.0000000000
     27380      3480  TIP3      OH2             8.3900557006      -21.8329831770      -25.3606241739  TIP3      3344            0.0000000000
     27381      3480  TIP3      H1              9.1267940562      -22.2782030771      -24.9254599021  TIP3      3344            0.0000000000
     27382      3480  TIP3      H2              7.6424906919      -22.1631270502      -24.8427906788  TIP3      3344            0.0000000000
     27383      3481  TIP3      OH2            13.5609987480      -26.6100022986      -33.1269393716  TIP3      3345            0.0000000000
     27384      3481  TIP3      H1             14.4903292667      -26.8973290161      -33.1429138699  TIP3      3345            0.0000000000
     27385      3481  TIP3      H2             13.0854149459      -27.4572862065      -33.2077123438  TIP3      3345            0.0000000000
     27386      3482  TIP3      OH2             8.7835593739      -29.9116967915      -36.1865994530  TIP3      3346            0.0000000000
     27387      3482  TIP3      H1              8.3623091009      -30.7618494818      -35.9308459854  TIP3      3346            0.0000000000
     27388      3482  TIP3      H2              9.3248947540      -30.1791691372      -36.9444461768  TIP3      3346            0.0000000000
     27389      3483  TIP3      OH2            13.7969126770      -28.7396808836      -30.6433588114  TIP3      3347            0.0000000000
     27390      3483  TIP3      H1             13.4248874431      -27.8791057858      -30.8871831568  TIP3      3347            0.0000000000
     27391      3483  TIP3      H2             14.5081049210      -28.5154007801      -30.0220441836  TIP3      3347            0.0000000000
     27392      3484  TIP3      OH2            13.6171203266      -22.2304809426      -38.2882332911  TIP3      3348            0.0000000000
     27393      3484  TIP3      H1             12.9011156538      -22.7772020910      -38.6981893479  TIP3      3348            0.0000000000
     27394      3484  TIP3      H2             13.1609934386      -21.8457506385      -37.5013022108  TIP3      3348            0.0000000000
     27395      3485  TIP3      OH2            20.9316798726      -22.3354600534      -30.1858800080  TIP3      3349            0.0000000000
     27396      3485  TIP3      H1             21.6147369224      -21.7948079046      -30.6436596496  TIP3      3349            0.0000000000
     27397      3485  TIP3      H2             20.2351278931      -22.3278940423      -30.8637516220  TIP3      3349            0.0000000000
     27398      3486  TIP3      OH2            17.3514665701      -29.3818959995      -40.1356573290  TIP3      3350            0.0000000000
     27399      3486  TIP3      H1             16.4723994752      -29.1207865453      -40.4609905877  TIP3      3350            0.0000000000
     27400      3486  TIP3      H2             17.8291601364      -28.5260110466      -40.0750438937  TIP3      3350            0.0000000000
     27401      3487  TIP3      OH2            15.2219723145      -21.6619838950      -27.0300233560  TIP3      3351            0.0000000000
     27402      3487  TIP3      H1             14.6333026134      -22.4300988690      -27.0117887890  TIP3      3351            0.0000000000
     27403      3487  TIP3      H2             14.8595030543      -21.1465003338      -26.2837991994  TIP3      3351            0.0000000000
     27404      3488  TIP3      OH2            18.5928491690      -27.2503607507      -39.2516824419  TIP3      3352            0.0000000000
     27405      3488  TIP3      H1             19.1971768817      -27.2911518617      -38.4826749963  TIP3      3352            0.0000000000
     27406      3488  TIP3      H2             18.6848558368      -26.3361925283      -39.5549035629  TIP3      3352            0.0000000000
     27407      3489  TIP3      OH2             8.7290224097      -22.3639149137      -33.2206548761  TIP3      3353            0.0000000000
     27408      3489  TIP3      H1              9.1076394835      -22.6701865537      -34.0725510071  TIP3      3353            0.0000000000
     27409      3489  TIP3      H2              9.0145953228      -23.0603511651      -32.6087750511  TIP3      3353            0.0000000000
     27410      3490  TIP3      OH2            15.3441971952      -20.7064654199      -39.5411598188  TIP3      3354            0.0000000000
     27411      3490  TIP3      H1             14.8703895526      -19.8588258628      -39.3614753589  TIP3      3354            0.0000000000
     27412      3490  TIP3      H2             14.7556973269      -21.3733231533      -39.1135465174  TIP3      3354            0.0000000000
     27413      3491  TIP3      OH2             5.9608489623      -24.7659037193      -27.3262724347  TIP3      3355            0.0000000000
     27414      3491  TIP3      H1              5.3798882580      -25.2214145909      -26.6910679733  TIP3      3355            0.0000000000
     27415      3491  TIP3      H2              5.3949186890      -24.7343398235      -28.1189098800  TIP3      3355            0.0000000000
     27416      3492  TIP3      OH2            11.7114243095      -24.3231022007      -25.6847531287  TIP3      3356            0.0000000000
     27417      3492  TIP3      H1             11.4740158166      -24.2766020608      -26.6245848277  TIP3      3356            0.0000000000
     27418      3492  TIP3      H2             12.4567038611      -24.9440745135      -25.7031802196  TIP3      3356            0.0000000000
     27419      3493  TIP3      OH2            17.7782768366      -19.4865736690      -27.3516467669  TIP3      3357            0.0000000000
     27420      3493  TIP3      H1             17.2314662520      -18.9238823978      -26.7636335657  TIP3      3357            0.0000000000
     27421      3493  TIP3      H2             18.6726017157      -19.2194517916      -27.0780506197  TIP3      3357            0.0000000000
     27422      3494  TIP3      OH2            22.5574990821      -26.7556698698      -38.4294556887  TIP3      3358            0.0000000000
     27423      3494  TIP3      H1             22.3969539372      -27.0638147491      -39.3470235697  TIP3      3358            0.0000000000
     27424      3494  TIP3      H2             22.9719916733      -25.8945352079      -38.6137927591  TIP3      3358            0.0000000000
     27425      3495  TIP3      OH2            23.3764134999      -21.3500744010      -25.9096764984  TIP3      3359            0.0000000000
     27426      3495  TIP3      H1             22.4896400163      -21.1965286751      -26.2898984147  TIP3      3359            0.0000000000
     27427      3495  TIP3      H2             23.8954446103      -21.4896423280      -26.7305644369  TIP3      3359            0.0000000000
     27428      3496  TIP3      OH2            21.3472707166      -18.4767022512      -38.6354696194  TIP3      3360            0.0000000000
     27429      3496  TIP3      H1             20.7224646189      -19.2058838759      -38.6071035558  TIP3      3360            0.0000000000
     27430      3496  TIP3      H2             21.7502458705      -18.5522157329      -39.5280113120  TIP3      3360            0.0000000000
     27431      3497  TIP3      OH2            18.4828710246      -23.4049216146      -31.8078048552  TIP3      3361            0.0000000000
     27432      3497  TIP3      H1             17.6521419237      -23.7798194542      -32.1594907746  TIP3      3361            0.0000000000
     27433      3497  TIP3      H2             19.1048510376      -24.0642918975      -32.1737287994  TIP3      3361            0.0000000000
     27434      3498  TIP3      OH2            10.7846639000      -19.3259020866      -35.4211225057  TIP3      3362            0.0000000000
     27435      3498  TIP3      H1             10.9689105499      -18.4059847294      -35.7319544193  TIP3      3362            0.0000000000
     27436      3498  TIP3      H2              9.8586464730      -19.4295906570      -35.6906581286  TIP3      3362            0.0000000000
     27437      3499  TIP3      OH2             6.8867762406      -23.8928375710      -41.3112131009  TIP3      3363            0.0000000000
     27438      3499  TIP3      H1              7.4089671227      -23.6612307351      -40.5104303561  TIP3      3363            0.0000000000
     27439      3499  TIP3      H2              5.9758008731      -23.9453745451      -40.9275842383  TIP3      3363            0.0000000000
     27440      3500  TIP3      OH2            12.3901105716      -21.4087766129      -36.0342868982  TIP3      3364            0.0000000000
     27441      3500  TIP3      H1             11.9329260660      -20.5475803474      -35.9157256805  TIP3      3364            0.0000000000
     27442      3500  TIP3      H2             11.7893863450      -22.0446051208      -35.6188184843  TIP3      3364            0.0000000000
     27443      3501  TIP3      OH2            13.3202023298      -17.2504804540      -29.1985537855  TIP3      3365            0.0000000000
     27444      3501  TIP3      H1             13.9319048219      -16.5183118663      -29.4283179596  TIP3      3365            0.0000000000
     27445      3501  TIP3      H2             13.6958143614      -17.5913700355      -28.3587756692  TIP3      3365            0.0000000000
     27446      3502  TIP3      OH2            11.2350559878      -16.8061035380      -36.4054428963  TIP3      3366            0.0000000000
     27447      3502  TIP3      H1             10.3046664174      -16.5194964916      -36.2925243990  TIP3      3366            0.0000000000
     27448      3502  TIP3      H2             11.7074125779      -16.0512722850      -35.9758623056  TIP3      3366            0.0000000000
     27449      3503  TIP3      OH2            16.7482263267      -21.9912261146      -29.9792680750  TIP3      3367            0.0000000000
     27450      3503  TIP3      H1             16.6550832403      -22.5988784179      -29.2328517148  TIP3      3367            0.0000000000
     27451      3503  TIP3      H2             17.4853837783      -22.4172183310      -30.4623590562  TIP3      3367            0.0000000000
     27452      3504  TIP3      OH2            18.7336808282      -19.9476153544      -40.4357969205  TIP3      3368            0.0000000000
     27453      3504  TIP3      H1             18.7616295321      -20.5449788072      -39.6558046337  TIP3      3368            0.0000000000
     27454      3504  TIP3      H2             17.8648143496      -20.1454421406      -40.8026294710  TIP3      3368            0.0000000000
     27455      3505  TIP3      OH2            19.4486019806      -17.1342950142      -27.6826935762  TIP3      3369            0.0000000000
     27456      3505  TIP3      H1             18.4866378315      -17.2475460842      -27.8238702720  TIP3      3369            0.0000000000
     27457      3505  TIP3      H2             19.5987889976      -16.3178913989      -28.2201692233  TIP3      3369            0.0000000000
     27458      3506  TIP3      OH2            23.2365364499      -15.9518505734      -40.4127983356  TIP3      3370            0.0000000000
     27459      3506  TIP3      H1             23.7154175822      -15.3893676215      -41.0398643797  TIP3      3370            0.0000000000
     27460      3506  TIP3      H2             22.6432209810      -15.3189908154      -39.9452410225  TIP3      3370            0.0000000000
     27461      3507  TIP3      OH2             7.5761484351      -29.3945435194      -27.8525378269  TIP3      3371            0.0000000000
     27462      3507  TIP3      H1              6.9313979822      -28.9777581107      -27.2554496869  TIP3      3371            0.0000000000
     27463      3507  TIP3      H2              7.4754527636      -30.3351396111      -27.5944535162  TIP3      3371            0.0000000000
     27464      3508  TIP3      OH2            19.5823004763      -21.6015241226      -38.4442526196  TIP3      3372            0.0000000000
     27465      3508  TIP3      H1             19.4956498145      -22.4385019655      -37.9355547429  TIP3      3372            0.0000000000
     27466      3508  TIP3      H2             20.5592674761      -21.4904184224      -38.4340072794  TIP3      3372            0.0000000000
     27467      3509  TIP3      OH2             7.0197138319      -18.0238924974      -29.7898748883  TIP3      3373            0.0000000000
     27468      3509  TIP3      H1              7.6303894707      -18.7369816690      -29.5366557546  TIP3      3373            0.0000000000
     27469      3509  TIP3      H2              6.6973003859      -17.7209062269      -28.9275726348  TIP3      3373            0.0000000000
     27470      3510  TIP3      OH2            11.5692381241      -19.7761801926      -39.8481793273  TIP3      3374            0.0000000000
     27471      3510  TIP3      H1             12.2630486413      -20.2943507167      -39.4041232578  TIP3      3374            0.0000000000
     27472      3510  TIP3      H2             11.7122239341      -18.8692392602      -39.4884490785  TIP3      3374            0.0000000000
     27473      3511  TIP3      OH2             8.1612567326      -22.5475680765      -39.3110336814  TIP3      3375            0.0000000000
     27474      3511  TIP3      H1              7.4233217029      -22.0653496309      -38.8611637317  TIP3      3375            0.0000000000
     27475      3511  TIP3      H2              8.5077100591      -21.8293742386      -39.8862526088  TIP3      3375            0.0000000000
     27476      3512  TIP3      OH2            16.1829715269      -29.5729454411      -28.7106366737  TIP3      3376            0.0000000000
     27477      3512  TIP3      H1             16.8500397204      -29.4555998013      -28.0024831777  TIP3      3376            0.0000000000
     27478      3512  TIP3      H2             15.9269514686      -30.5220510792      -28.5979370686  TIP3      3376            0.0000000000
     27479      3513  TIP3      OH2            16.3932956648      -30.3782201002      -37.7557361584  TIP3      3377            0.0000000000
     27480      3513  TIP3      H1             16.8451595847      -29.8641344886      -38.4580507374  TIP3      3377            0.0000000000
     27481      3513  TIP3      H2             16.9543027249      -30.2138245113      -36.9654575936  TIP3      3377            0.0000000000
     27482      3514  TIP3      OH2            14.4334209203      -18.1338326836      -39.6621139095  TIP3      3378            0.0000000000
     27483      3514  TIP3      H1             13.6559998182      -17.6629940989      -39.3135737133  TIP3      3378            0.0000000000
     27484      3514  TIP3      H2             14.4429840138      -17.8107277673      -40.5868139179  TIP3      3378            0.0000000000
     27485      3515  TIP3      OH2            14.3204461574      -28.0372922795      -36.9067828436  TIP3      3379            0.0000000000
     27486      3515  TIP3      H1             15.0725157313      -27.4139640968      -36.8679918098  TIP3      3379            0.0000000000
     27487      3515  TIP3      H2             14.2703039794      -28.3702125103      -35.9883995908  TIP3      3379            0.0000000000
     27488      3516  TIP3      OH2            15.0819124315      -27.0858698828      -28.1109793857  TIP3      3380            0.0000000000
     27489      3516  TIP3      H1             15.1172490501      -26.8904508196      -27.1623114954  TIP3      3380            0.0000000000
     27490      3516  TIP3      H2             15.4050673053      -28.0151423607      -28.1889544581  TIP3      3380            0.0000000000
     27491      3517  TIP3      OH2            14.4335668649      -31.5755424050      -36.3802850056  TIP3      3381            0.0000000000
     27492      3517  TIP3      H1             14.3394419469      -30.8278618410      -35.7550290384  TIP3      3381            0.0000000000
     27493      3517  TIP3      H2             15.1869307695      -31.2439117162      -36.9190666802  TIP3      3381            0.0000000000
     27494      3518  TIP3      OH2            11.9159995864      -17.2517712823      -38.9209978229  TIP3      3382            0.0000000000
     27495      3518  TIP3      H1             11.8206798827      -16.3808736564      -39.3591819024  TIP3      3382            0.0000000000
     27496      3518  TIP3      H2             11.5906571417      -17.0366843639      -38.0091257527  TIP3      3382            0.0000000000
     27497      3519  TIP3      OH2            10.2658513840      -30.4940406217      -39.2489760562  TIP3      3383            0.0000000000
     27498      3519  TIP3      H1             10.4246986067      -29.6374800152      -38.8090728967  TIP3      3383            0.0000000000
     27499      3519  TIP3      H2             10.9820599746      -31.0527091586      -38.8789743831  TIP3      3383            0.0000000000
     27500      3520  TIP3      OH2            20.5676712905      -29.3777533371      -27.1722931462  TIP3      3384            0.0000000000
     27501      3520  TIP3      H1             19.6497461711      -29.3857743755      -26.8473512169  TIP3      3384            0.0000000000
     27502      3520  TIP3      H2             20.4212638070      -29.5228265641      -28.1308279114  TIP3      3384            0.0000000000
     27503      3521  TIP3      OH2            19.4839899461      -25.5543421885      -33.2237475374  TIP3      3385            0.0000000000
     27504      3521  TIP3      H1             18.7583416357      -26.1862626572      -33.0983676710  TIP3      3385            0.0000000000
     27505      3521  TIP3      H2             20.2297722867      -26.0411210321      -32.7899078629  TIP3      3385            0.0000000000
     27506      3522  TIP3      OH2             8.9213362477      -20.2391207155      -40.7429926674  TIP3      3386            0.0000000000
     27507      3522  TIP3      H1              9.7018513084      -19.8684887866      -40.2835252038  TIP3      3386            0.0000000000
     27508      3522  TIP3      H2              9.3388512075      -20.6064559405      -41.5412157673  TIP3      3386            0.0000000000
     27509      3523  TIP3      OH2             6.8375855008      -26.8034437207      -41.0907795430  TIP3      3387            0.0000000000
     27510      3523  TIP3      H1              7.1924903608      -25.8945344339      -41.1022017696  TIP3      3387            0.0000000000
     27511      3523  TIP3      H2              5.9711734328      -26.6732536747      -41.5217876499  TIP3      3387            0.0000000000
     27512      3524  TIP3      OH2            20.4303173917      -16.4953017171      -31.4641706712  TIP3      3388            0.0000000000
     27513      3524  TIP3      H1             20.1752989120      -15.8363572502      -32.1324862578  TIP3      3388            0.0000000000
     27514      3524  TIP3      H2             21.3862326651      -16.4872300630      -31.6409997637  TIP3      3388            0.0000000000
     27515      3525  TIP3      OH2             8.2034854814      -32.2634786378      -32.9840029964  TIP3      3389            0.0000000000
     27516      3525  TIP3      H1              7.8771493547      -32.3463874332      -33.9040417989  TIP3      3389            0.0000000000
     27517      3525  TIP3      H2              7.9140494414      -33.0927186296      -32.5399843477  TIP3      3389            0.0000000000
     27518      3526  TIP3      OH2             6.2072198936      -18.8863085319      -37.3141367726  TIP3      3390            0.0000000000
     27519      3526  TIP3      H1              5.7279329453      -18.2803728053      -36.7350695445  TIP3      3390            0.0000000000
     27520      3526  TIP3      H2              6.6506529308      -18.2400964840      -37.9032800006  TIP3      3390            0.0000000000
     27521      3527  TIP3      OH2             6.0708754572      -15.5672304787      -25.1413428452  TIP3      3391            0.0000000000
     27522      3527  TIP3      H1              6.7463629372      -15.7030116078      -24.4364461336  TIP3      3391            0.0000000000
     27523      3527  TIP3      H2              5.4371296777      -16.2685105724      -24.9185080582  TIP3      3391            0.0000000000
     27524      3528  TIP3      OH2            10.9005619483      -16.5569162034      -23.7514910756  TIP3      3392            0.0000000000
     27525      3528  TIP3      H1             11.3581338925      -16.8824983086      -22.9355430558  TIP3      3392            0.0000000000
     27526      3528  TIP3      H2             11.0933762312      -17.2683637229      -24.3833117924  TIP3      3392            0.0000000000
     27527      3529  TIP3      OH2            17.0392355628      -18.1037080654      -25.0983774905  TIP3      3393            0.0000000000
     27528      3529  TIP3      H1             16.7012864639      -18.9380340131      -24.6926280645  TIP3      3393            0.0000000000
     27529      3529  TIP3      H2             17.9253498234      -18.0437114575      -24.6540093648  TIP3      3393            0.0000000000
     27530      3530  TIP3      OH2            19.8974763449      -17.7647316177      -42.1115757279  TIP3      3394            0.0000000000
     27531      3530  TIP3      H1             19.6596668641      -18.3720942642      -41.3788163228  TIP3      3394            0.0000000000
     27532      3530  TIP3      H2             20.7109221109      -18.1899963588      -42.4384169867  TIP3      3394            0.0000000000
     27533      3531  TIP3      OH2             5.5577144364      -22.5589004301      -23.9333641212  TIP3      3395            0.0000000000
     27534      3531  TIP3      H1              5.8253419550      -23.4245799958      -24.2967197196  TIP3      3395            0.0000000000
     27535      3531  TIP3      H2              5.1793671203      -22.1254255745      -24.7247398540  TIP3      3395            0.0000000000
     27536      3532  TIP3      OH2            10.3017823640      -21.9265957636      -42.4855285656  TIP3      3396            0.0000000000
     27537      3532  TIP3      H1             10.7574278306      -21.8015807988      -41.6416358633  TIP3      3396            0.0000000000
     27538      3532  TIP3      H2             10.8767719915      -22.6270699301      -42.8740343177  TIP3      3396            0.0000000000
     27539      3533  TIP3      OH2            13.0716053553      -22.0090737165      -25.3467595739  TIP3      3397            0.0000000000
     27540      3533  TIP3      H1             12.5755047647      -21.3405818879      -25.8680658498  TIP3      3397            0.0000000000
     27541      3533  TIP3      H2             12.5213249281      -22.8256517733      -25.4421403248  TIP3      3397            0.0000000000
     27542      3534  TIP3      OH2            18.6770385819      -22.3500039147      -27.4596684670  TIP3      3398            0.0000000000
     27543      3534  TIP3      H1             19.4916270087      -21.8220544124      -27.3415785658  TIP3      3398            0.0000000000
     27544      3534  TIP3      H2             18.0041528761      -21.6439858503      -27.3739875317  TIP3      3398            0.0000000000
     27545      3535  TIP3      OH2             7.4006488602      -24.7029983641      -24.1169971208  TIP3      3399            0.0000000000
     27546      3535  TIP3      H1              7.7761678646      -25.5932609709      -24.0384153053  TIP3      3399            0.0000000000
     27547      3535  TIP3      H2              7.5392475367      -24.3563556825      -23.2101427220  TIP3      3399            0.0000000000
     27548      3536  TIP3      OH2            11.7546477637      -23.7068831261      -39.6123410655  TIP3      3400            0.0000000000
     27549      3536  TIP3      H1             10.9714946922      -24.1568582240      -39.2277471786  TIP3      3400            0.0000000000
     27550      3536  TIP3      H2             12.0339005911      -24.3463510501      -40.2998266672  TIP3      3400            0.0000000000
     27551      3537  TIP3      OH2            10.4491115222      -25.8013970990      -28.0599569852  TIP3      3401            0.0000000000
     27552      3537  TIP3      H1              9.8189443169      -25.2135412390      -27.5969819014  TIP3      3401            0.0000000000
     27553      3537  TIP3      H2             10.9929886037      -25.1490768397      -28.5264358896  TIP3      3401            0.0000000000
     27554      3538  TIP3      OH2            12.6794325061      -25.4551242026      -41.4360711713  TIP3      3402            0.0000000000
     27555      3538  TIP3      H1             12.7803480586      -25.2179592815      -42.3763956029  TIP3      3402            0.0000000000
     27556      3538  TIP3      H2             13.6158149555      -25.3157982460      -41.1417257637  TIP3      3402            0.0000000000
     27557      3539  TIP3      OH2            16.0793969725      -22.9301992839      -24.0923373764  TIP3      3403            0.0000000000
     27558      3539  TIP3      H1             16.8329541134      -23.4416597828      -24.4281877338  TIP3      3403            0.0000000000
     27559      3539  TIP3      H2             15.3028813698      -23.3409392558      -24.5163350176  TIP3      3403            0.0000000000
     27560      3540  TIP3      OH2            22.1124400212      -22.8828233314      -42.5955643372  TIP3      3404            0.0000000000
     27561      3540  TIP3      H1             21.5828470574      -22.7395761565      -43.3924494182  TIP3      3404            0.0000000000
     27562      3540  TIP3      H2             22.5912677462      -22.0354947576      -42.5116901181  TIP3      3404            0.0000000000
     27563      3541  TIP3      OH2            11.6147632142      -27.9694575021      -26.8478576037  TIP3      3405            0.0000000000
     27564      3541  TIP3      H1             11.5954302755      -28.6273926521      -27.5851292597  TIP3      3405            0.0000000000
     27565      3541  TIP3      H2             11.3349660600      -27.1407787140      -27.3028876696  TIP3      3405            0.0000000000
     27566      3542  TIP3      OH2            11.7894233676      -29.7058133614      -28.8794728033  TIP3      3406            0.0000000000
     27567      3542  TIP3      H1             12.4910238096      -29.3774233415      -29.4797567015  TIP3      3406            0.0000000000
     27568      3542  TIP3      H2             11.0227980064      -29.7207275807      -29.4855642585  TIP3      3406            0.0000000000
     27569      3543  TIP3      OH2            12.9430542066      -23.8369390260      -28.4115528126  TIP3      3407            0.0000000000
     27570      3543  TIP3      H1             13.5963186796      -24.3130236926      -28.9425363027  TIP3      3407            0.0000000000
     27571      3543  TIP3      H2             12.3811558330      -23.3850794673      -29.0825068467  TIP3      3407            0.0000000000
     27572      3544  TIP3      OH2            16.8244457092      -26.3844028038      -23.6895314162  TIP3      3408            0.0000000000
     27573      3544  TIP3      H1             16.7678314181      -27.3483202225      -23.8016237531  TIP3      3408            0.0000000000
     27574      3544  TIP3      H2             17.7820294220      -26.2295290684      -23.5988615218  TIP3      3408            0.0000000000
     27575      3545  TIP3      OH2            18.8917461577      -23.7492358466      -25.1017410129  TIP3      3409            0.0000000000
     27576      3545  TIP3      H1             18.8028406799      -23.3508487537      -25.9990429574  TIP3      3409            0.0000000000
     27577      3545  TIP3      H2             19.7767432685      -24.1373506278      -25.1775427183  TIP3      3409            0.0000000000
     27578      3546  TIP3      OH2             9.9944290814      -27.5635842438      -24.7479135882  TIP3      3410            0.0000000000
     27579      3546  TIP3      H1              9.1248860512      -28.0055655286      -24.7881292688  TIP3      3410            0.0000000000
     27580      3546  TIP3      H2             10.4329101689      -27.8509639133      -25.5818471610  TIP3      3410            0.0000000000
     27581      3547  TIP3      OH2            12.2656201090      -32.3548146495      -28.6681012305  TIP3      3411            0.0000000000
     27582      3547  TIP3      H1             12.2559981478      -31.3672297042      -28.6478118565  TIP3      3411            0.0000000000
     27583      3547  TIP3      H2             11.4754487835      -32.5410502458      -29.1925267944  TIP3      3411            0.0000000000
     27584      3548  TIP3      OH2            13.2916185179      -28.1828857076      -24.6012376345  TIP3      3412            0.0000000000
     27585      3548  TIP3      H1             12.9515130724      -28.9669839608      -24.1238008890  TIP3      3412            0.0000000000
     27586      3548  TIP3      H2             12.6855489323      -28.2018188119      -25.3762449664  TIP3      3412            0.0000000000
     27587      3549  TIP3      OH2            15.8370868352      -28.8947760859      -24.9961872752  TIP3      3413            0.0000000000
     27588      3549  TIP3      H1             14.8558760393      -28.8199651936      -24.9581131548  TIP3      3413            0.0000000000
     27589      3549  TIP3      H2             15.9694303674      -29.6884172790      -24.4709657470  TIP3      3413            0.0000000000
     27590      3550  TIP3      OH2            18.2017281420      -31.2752699192      -23.0730715551  TIP3      3414            0.0000000000
     27591      3550  TIP3      H1             17.5350503225      -31.8593073830      -23.5038621706  TIP3      3414            0.0000000000
     27592      3550  TIP3      H2             17.6992514576      -30.4658013620      -22.9144363718  TIP3      3414            0.0000000000
     27593      3551  TIP3      OH2             7.9543166325      -29.3019495492      -24.2828053882  TIP3      3415            0.0000000000
     27594      3551  TIP3      H1              8.2564412759      -30.2108478348      -24.1826891871  TIP3      3415            0.0000000000
     27595      3551  TIP3      H2              7.9712935159      -29.0118495697      -23.3257402687  TIP3      3415            0.0000000000
     27596      3552  TIP3      OH2            13.2922202698      -32.3621402909      -26.2701052123  TIP3      3416            0.0000000000
     27597      3552  TIP3      H1             13.1764262787      -33.2513493672      -25.8748186242  TIP3      3416            0.0000000000
     27598      3552  TIP3      H2             12.7701853695      -32.4529286472      -27.0899825503  TIP3      3416            0.0000000000
     27599      3553  TIP3      OH2            13.0297945320      -31.0130699086      -24.0852245780  TIP3      3417            0.0000000000
     27600      3553  TIP3      H1             13.0736734954      -31.6882211436      -24.8049278398  TIP3      3417            0.0000000000
     27601      3553  TIP3      H2             12.0776708222      -30.8902553127      -23.9387816389  TIP3      3417            0.0000000000
     27602      3554  TIP3      OH2            12.0417814480      -15.0754635978      -40.8450579958  TIP3      3418            0.0000000000
     27603      3554  TIP3      H1             12.8748485824      -14.7931930159      -40.4206988761  TIP3      3418            0.0000000000
     27604      3554  TIP3      H2             12.2203704918      -14.7800919670      -41.7615292768  TIP3      3418            0.0000000000
     27605      3555  TIP3      OH2             5.8289026259      -20.6467893046      -41.0719661610  TIP3      3419            0.0000000000
     27606      3555  TIP3      H1              6.6755348524      -20.4645364944      -41.5135735711  TIP3      3419            0.0000000000
     27607      3555  TIP3      H2              5.2482677854      -20.8340788314      -41.8231928449  TIP3      3419            0.0000000000
     27608      3556  TIP3      OH2             5.1996908414      -15.1864316046      -35.9920714022  TIP3      3420            0.0000000000
     27609      3556  TIP3      H1              4.3655765518      -15.5440286290      -36.3788627344  TIP3      3420            0.0000000000
     27610      3556  TIP3      H2              5.3698040565      -15.8623573524      -35.3013512238  TIP3      3420            0.0000000000
     27611      3557  TIP3      OH2             5.7423058945      -17.0431605415      -34.0719485139  TIP3      3421            0.0000000000
     27612      3557  TIP3      H1              5.5366600379      -17.8810635492      -33.6047873329  TIP3      3421            0.0000000000
     27613      3557  TIP3      H2              6.2570801123      -16.5935271088      -33.3570898186  TIP3      3421            0.0000000000
     27614      3558  TIP3      OH2            23.3839970804      -15.4320839791      -31.4857234746  TIP3      3422            0.0000000000
     27615      3558  TIP3      H1             23.4823682538      -15.7833504005      -30.5943252304  TIP3      3422            0.0000000000
     27616      3558  TIP3      H2             23.8576278448      -14.5923182365      -31.4282834905  TIP3      3422            0.0000000000
     27617      3559  TIP3      OH2            22.7574835775      -16.3033606898      -28.4647202413  TIP3      3423            0.0000000000
     27618      3559  TIP3      H1             22.4768952498      -17.1360083219      -28.9042942982  TIP3      3423            0.0000000000
     27619      3559  TIP3      H2             23.2935405071      -16.6576348886      -27.7372559205  TIP3      3423            0.0000000000
     27620      3560  TIP3      OH2            21.3427726977      -20.8157719054      -23.3400155664  TIP3      3424            0.0000000000
     27621      3560  TIP3      H1             20.3777934494      -20.8022014346      -23.4211640482  TIP3      3424            0.0000000000
     27622      3560  TIP3      H2             21.5089261381      -19.9056855920      -23.0175081458  TIP3      3424            0.0000000000
     27623      3561  TIP3      OH2            22.3139688540      -21.9588417839      -38.4719210676  TIP3      3425            0.0000000000
     27624      3561  TIP3      H1             23.0276321419      -21.4329129791      -38.0536195789  TIP3      3425            0.0000000000
     27625      3561  TIP3      H2             22.2919727386      -22.7279971796      -37.8636375748  TIP3      3425            0.0000000000
     27626      3562  TIP3      OH2            22.9411645753      -24.1117730472      -36.5884708798  TIP3      3426            0.0000000000
     27627      3562  TIP3      H1             22.2411969120      -24.6671916341      -36.1553539343  TIP3      3426            0.0000000000
     27628      3562  TIP3      H2             23.3616020109      -23.7457715655      -35.8060743525  TIP3      3426            0.0000000000
     27629      3563  TIP3      OH2            22.5730864571      -21.2386827427      -31.8719212116  TIP3      3427            0.0000000000
     27630      3563  TIP3      H1             23.2542718806      -21.9347096920      -31.9709167812  TIP3      3427            0.0000000000
     27631      3563  TIP3      H2             23.0113732564      -20.4474952001      -32.2243433712  TIP3      3427            0.0000000000
     27632      3564  TIP3      OH2            21.3440820014      -18.5804081819      -29.3288181450  TIP3      3428            0.0000000000
     27633      3564  TIP3      H1             20.6028420184      -17.9946321952      -29.0921339120  TIP3      3428            0.0000000000
     27634      3564  TIP3      H2             21.0260838881      -19.0002455126      -30.1435937998  TIP3      3428            0.0000000000
     27635      3565  TIP3      OH2            23.4910477835      -23.8791144496      -40.1063206478  TIP3      3429            0.0000000000
     27636      3565  TIP3      H1             22.7598876524      -23.6622876867      -40.7057007459  TIP3      3429            0.0000000000
     27637      3565  TIP3      H2             23.4018864435      -23.1212732045      -39.4967453268  TIP3      3429            0.0000000000
     27638      3566  TIP3      OH2            22.0517061089      -27.2507767206      -41.3158555538  TIP3      3430            0.0000000000
     27639      3566  TIP3      H1             21.8022901545      -26.8353408270      -42.1603187268  TIP3      3430            0.0000000000
     27640      3566  TIP3      H2             21.6131288166      -28.1049629280      -41.3930807061  TIP3      3430            0.0000000000
     27641      3567  TIP3      OH2            21.0602972618      -25.5385441942      -35.3599128837  TIP3      3431            0.0000000000
     27642      3567  TIP3      H1             20.6720761025      -26.3422768807      -35.7589794917  TIP3      3431            0.0000000000
     27643      3567  TIP3      H2             20.5279483250      -25.4330244202      -34.5424314370  TIP3      3431            0.0000000000
     27644      3568  TIP3      OH2             5.5901841197      -23.2140562807      -31.6450057808  TIP3      3432            0.0000000000
     27645      3568  TIP3      H1              5.5542918048      -23.7007076438      -32.4941835606  TIP3      3432            0.0000000000
     27646      3568  TIP3      H2              6.5099683436      -23.4397518784      -31.3567382189  TIP3      3432            0.0000000000
     27647      3569  TIP3      OH2            21.7860145293      -23.6583327731      -25.8304103840  TIP3      3433            0.0000000000
     27648      3569  TIP3      H1             22.2418566630      -24.5333670646      -25.7791728585  TIP3      3433            0.0000000000
     27649      3569  TIP3      H2             22.5422661259      -23.0379988676      -25.8923857032  TIP3      3433            0.0000000000
     27650      3570  TIP3      OH2            23.1433662756      -25.9485214336      -25.8717998333  TIP3      3434            0.0000000000
     27651      3570  TIP3      H1             22.2722955188      -26.3821248892      -25.7619197554  TIP3      3434            0.0000000000
     27652      3570  TIP3      H2             23.7855623301      -26.6545445588      -25.6531814398  TIP3      3434            0.0000000000
     27653      3571  TIP3      OH2            20.2835182331      -27.4132815128      -37.1283157901  TIP3      3435            0.0000000000
     27654      3571  TIP3      H1             20.5016954759      -28.3754605203      -37.0512726100  TIP3      3435            0.0000000000
     27655      3571  TIP3      H2             21.0996257798      -27.0948798179      -37.5752215633  TIP3      3435            0.0000000000
     27656      3572  TIP3      OH2            21.2499239321      -27.1190336915      -31.8966329205  TIP3      3436            0.0000000000
     27657      3572  TIP3      H1             22.2182950953      -27.0064504637      -31.7560954045  TIP3      3436            0.0000000000
     27658      3572  TIP3      H2             20.9698619430      -27.2659298130      -30.9671340435  TIP3      3436            0.0000000000
     27659      3573  TIP3      OH2            20.9290386860      -26.5451109612      -29.3460268240  TIP3      3437            0.0000000000
     27660      3573  TIP3      H1             20.0426586984      -26.1924601446      -29.1565323803  TIP3      3437            0.0000000000
     27661      3573  TIP3      H2             21.5031429166      -25.7432759779      -29.3274671983  TIP3      3437            0.0000000000
     27662      3574  TIP3      OH2             5.6354167431      -28.4354661310      -25.1400487087  TIP3      3438            0.0000000000
     27663      3574  TIP3      H1              6.5454808943      -28.5826969875      -24.7966032819  TIP3      3438            0.0000000000
     27664      3574  TIP3      H2              5.1894619698      -29.2568118903      -24.8498542245  TIP3      3438            0.0000000000
     27665      3575  TIP3      OH2            24.2125068089      -32.5908537810      -23.6519626876  TIP3      3439            0.0000000000
     27666      3575  TIP3      H1             24.3656213372      -33.5276585613      -23.9120466564  TIP3      3439            0.0000000000
     27667      3575  TIP3      H2             24.1335081719      -32.1664897960      -24.5238539706  TIP3      3439            0.0000000000
     27668      3576  TIP3      OH2            21.0903415738      -29.9036014948      -36.9427506922  TIP3      3440            0.0000000000
     27669      3576  TIP3      H1             21.2179522291      -30.5785753018      -36.2368302221  TIP3      3440            0.0000000000
     27670      3576  TIP3      H2             20.4154257521      -30.3677499769      -37.4884427052  TIP3      3440            0.0000000000
     27671      3577  TIP3      OH2             6.5478689730      -30.0741570958      -32.3205420037  TIP3      3441            0.0000000000
     27672      3577  TIP3      H1              6.9487710019      -30.9646259231      -32.3012281815  TIP3      3441            0.0000000000
     27673      3577  TIP3      H2              7.3078262820      -29.4602947759      -32.2729261726  TIP3      3441            0.0000000000
     27674      3578  TIP3      OH2             5.0930624197      -26.8588679025      -31.2824112654  TIP3      3442            0.0000000000
     27675      3578  TIP3      H1              5.5168620748      -27.1071666375      -32.1307471765  TIP3      3442            0.0000000000
     27676      3578  TIP3      H2              5.7593562546      -26.2621335190      -30.9175148277  TIP3      3442            0.0000000000
     27677      3579  TIP3      OH2            23.3587520870      -30.2452690732      -25.2964342685  TIP3      3443            0.0000000000
     27678      3579  TIP3      H1             22.9004983782      -30.4293146820      -24.4612966190  TIP3      3443            0.0000000000
     27679      3579  TIP3      H2             22.6350046819      -30.5070485608      -25.8878145355  TIP3      3443            0.0000000000
     27680      3580  TIP3      OH2            23.1185798362      -30.9359786419      -40.6450009318  TIP3      3444            0.0000000000
     27681      3580  TIP3      H1             23.7596158640      -31.6096435311      -40.9148528591  TIP3      3444            0.0000000000
     27682      3580  TIP3      H2             23.6430909828      -30.1426046664      -40.7409745156  TIP3      3444            0.0000000000
     27683      3581  TIP3      OH2             4.7491476997      -30.5557219318      -37.4529567232  TIP3      3445            0.0000000000
     27684      3581  TIP3      H1              3.8173427377      -30.2655696234      -37.4214923571  TIP3      3445            0.0000000000
     27685      3581  TIP3      H2              5.1760763939      -29.8196062153      -37.9178896913  TIP3      3445            0.0000000000
     27686      3582  TIP3      OH2            20.2119307832      -15.6594519397      -35.2397861832  TIP3      3446            0.0000000000
     27687      3582  TIP3      H1             20.8749000783      -16.0772375191      -35.8392429037  TIP3      3446            0.0000000000
     27688      3582  TIP3      H2             20.7510705195      -15.1201044989      -34.6292574213  TIP3      3446            0.0000000000
     27689      3583  TIP3      OH2             4.9649176936      -32.2038312588      -29.5906355830  TIP3      3447            0.0000000000
     27690      3583  TIP3      H1              5.3232482129      -32.1680857632      -28.6795361290  TIP3      3447            0.0000000000
     27691      3583  TIP3      H2              4.4893278383      -31.3635677748      -29.6994059286  TIP3      3447            0.0000000000
     27692      3584  TIP3      OH2             7.2112825961      -18.7437615904      -24.7860015765  TIP3      3448            0.0000000000
     27693      3584  TIP3      H1              6.4713486458      -18.7859635501      -25.4375087868  TIP3      3448            0.0000000000
     27694      3584  TIP3      H2              7.2634049893      -17.7898744261      -24.6201931173  TIP3      3448            0.0000000000
     27695      3585  TIP3      OH2            10.9581888015      -17.1307469866      -28.0614855145  TIP3      3449            0.0000000000
     27696      3585  TIP3      H1             10.6187069490      -16.3533727155      -28.5671773524  TIP3      3449            0.0000000000
     27697      3585  TIP3      H2             11.7846753664      -17.3291961556      -28.5573084730  TIP3      3449            0.0000000000
     27698      3586  TIP3      OH2            14.4240639491      -16.2110281432      -26.0668627437  TIP3      3450            0.0000000000
     27699      3586  TIP3      H1             14.7145392329      -16.4646453473      -25.1678464672  TIP3      3450            0.0000000000
     27700      3586  TIP3      H2             15.2616451095      -15.8831974790      -26.4684081527  TIP3      3450            0.0000000000
     27701      3587  TIP3      OH2            16.6820845159      -15.0090319704      -26.8276834904  TIP3      3451            0.0000000000
     27702      3587  TIP3      H1             17.5332598687      -15.0532760083      -27.2760999520  TIP3      3451            0.0000000000
     27703      3587  TIP3      H2             16.9267520169      -14.5777354129      -25.9803685392  TIP3      3451            0.0000000000
     27704      3588  TIP3      OH2            21.3000074707      -32.6818105652      -27.7677404380  TIP3      3452            0.0000000000
     27705      3588  TIP3      H1             21.2535371973      -31.7390786120      -27.9765114308  TIP3      3452            0.0000000000
     27706      3588  TIP3      H2             21.6157928371      -33.0494476850      -28.6119621628  TIP3      3452            0.0000000000
     27707      3589  TIP3      OH2             7.6382196851      -14.6490491577      -29.2493686679  TIP3      3453            0.0000000000
     27708      3589  TIP3      H1              7.1467929953      -13.9003035464      -29.6405287629  TIP3      3453            0.0000000000
     27709      3589  TIP3      H2              7.3865681500      -14.5535736145      -28.3241310768  TIP3      3453            0.0000000000
     27710      3590  TIP3      OH2            10.2262280508      -14.9382100119      -29.4996361446  TIP3      3454            0.0000000000
     27711      3590  TIP3      H1              9.2379668646      -14.9765116776      -29.4721040302  TIP3      3454            0.0000000000
     27712      3590  TIP3      H2             10.3356990009      -14.5280820119      -30.3866048472  TIP3      3454            0.0000000000
     27713      3591  TIP3      OH2            14.7934735180      -15.3179499395      -30.5733163821  TIP3      3455            0.0000000000
     27714      3591  TIP3      H1             14.0364060642      -14.9027287490      -31.0408760101  TIP3      3455            0.0000000000
     27715      3591  TIP3      H2             15.1034406379      -14.5553444308      -30.0300519142  TIP3      3455            0.0000000000
     27716      3592  TIP3      OH2            16.9430476108      -16.8937332595      -29.2732170728  TIP3      3456            0.0000000000
     27717      3592  TIP3      H1             16.1729954177      -16.5694930598      -29.7796254670  TIP3      3456            0.0000000000
     27718      3592  TIP3      H2             17.5902786686      -16.2175813377      -29.5492215591  TIP3      3456            0.0000000000
     27719      3593  TIP3      OH2            19.5216352977      -14.9417907381      -29.3225356605  TIP3      3457            0.0000000000
     27720      3593  TIP3      H1             19.5857083330      -13.9960280522      -29.5742429229  TIP3      3457            0.0000000000
     27721      3593  TIP3      H2             19.8530570739      -15.3407942858      -30.1557947241  TIP3      3457            0.0000000000
     27722      3594  TIP3      OH2             7.2131014245      -16.3133163661      -31.9881967694  TIP3      3458            0.0000000000
     27723      3594  TIP3      H1              7.0409851450      -16.8337241657      -31.1658580115  TIP3      3458            0.0000000000
     27724      3594  TIP3      H2              8.1215424489      -16.6186106931      -32.2244679721  TIP3      3458            0.0000000000
     27725      3595  TIP3      OH2             9.5616164058      -16.9809155668      -32.9954169502  TIP3      3459            0.0000000000
     27726      3595  TIP3      H1              9.3939064954      -17.9482842098      -32.8704992333  TIP3      3459            0.0000000000
     27727      3595  TIP3      H2             10.3083072876      -16.8355267074      -32.3712253948  TIP3      3459            0.0000000000
     27728      3596  TIP3      OH2            11.6410052645      -17.1851752079      -31.4448333745  TIP3      3460            0.0000000000
     27729      3596  TIP3      H1             12.0277968326      -17.9508303001      -31.9022031534  TIP3      3460            0.0000000000
     27730      3596  TIP3      H2             12.0966981403      -17.2188441551      -30.5809495565  TIP3      3460            0.0000000000
     27731      3597  TIP3      OH2            15.3961479461      -30.9503567799      -33.1543488963  TIP3      3461            0.0000000000
     27732      3597  TIP3      H1             14.6213779181      -31.3282579845      -32.6903356139  TIP3      3461            0.0000000000
     27733      3597  TIP3      H2             15.6704847767      -31.7329666118      -33.6528033431  TIP3      3461            0.0000000000
     27734      3598  TIP3      OH2            20.9905945104      -33.0781737472      -32.5844768527  TIP3      3462            0.0000000000
     27735      3598  TIP3      H1             21.3598809891      -32.6184802754      -33.3604223119  TIP3      3462            0.0000000000
     27736      3598  TIP3      H2             20.2626791507      -33.5943785041      -32.9710305045  TIP3      3462            0.0000000000
     27737      3599  TIP3      OH2            21.9796459415      -31.5310562702      -34.8445952257  TIP3      3463            0.0000000000
     27738      3599  TIP3      H1             22.3437034982      -32.1027659717      -35.5577972677  TIP3      3463            0.0000000000
     27739      3599  TIP3      H2             22.6270154754      -30.7874684256      -34.8628005242  TIP3      3463            0.0000000000
     27740      3600  TIP3      OH2             7.5492020216      -32.2177897383      -35.6515814124  TIP3      3464            0.0000000000
     27741      3600  TIP3      H1              6.7032517922      -32.3315098227      -36.1322167316  TIP3      3464            0.0000000000
     27742      3600  TIP3      H2              8.1167575642      -32.8307539973      -36.1841386183  TIP3      3464            0.0000000000
     27743      3601  TIP3      OH2             6.2264270715      -32.4349431452      -38.9505484506  TIP3      3465            0.0000000000
     27744      3601  TIP3      H1              6.6544328059      -32.0619066335      -39.7421522124  TIP3      3465            0.0000000000
     27745      3601  TIP3      H2              5.6554212827      -31.7149728021      -38.6059016076  TIP3      3465            0.0000000000
     27746      3602  TIP3      OH2            11.6843988785      -32.1273599583      -36.2642812374  TIP3      3466            0.0000000000
     27747      3602  TIP3      H1             12.6497690039      -31.9846295132      -36.3464051141  TIP3      3466            0.0000000000
     27748      3602  TIP3      H2             11.7021718796      -32.7268467353      -35.5130413721  TIP3      3466            0.0000000000
     27749      3603  TIP3      OH2            17.9865682930      -32.5125980615      -34.7417219490  TIP3      3467            0.0000000000
     27750      3603  TIP3      H1             17.9314123735      -31.6729544185      -34.2640825459  TIP3      3467            0.0000000000
     27751      3603  TIP3      H2             17.5391931559      -33.1305754382      -34.1364792977  TIP3      3467            0.0000000000
     27752      3604  TIP3      OH2            19.1659209714      -31.4541348364      -37.9861031403  TIP3      3468            0.0000000000
     27753      3604  TIP3      H1             18.2768129214      -31.3820144671      -38.3607461685  TIP3      3468            0.0000000000
     27754      3604  TIP3      H2             19.0208796040      -32.1025240053      -37.2744468199  TIP3      3468            0.0000000000
     27755      3605  TIP3      OH2             6.4767503646      -16.7051146933      -39.0303247637  TIP3      3469            0.0000000000
     27756      3605  TIP3      H1              5.5143237481      -16.7034877705      -39.2199678475  TIP3      3469            0.0000000000
     27757      3605  TIP3      H2              6.6263920505      -15.7450672138      -39.1512893615  TIP3      3469            0.0000000000
     27758      3606  TIP3      OH2             7.9659886530      -31.4524296310      -41.0540932700  TIP3      3470            0.0000000000
     27759      3606  TIP3      H1              8.5553046232      -31.0983126488      -41.7407879332  TIP3      3470            0.0000000000
     27760      3606  TIP3      H2              8.5185430091      -31.3058958104      -40.2620788626  TIP3      3470            0.0000000000
     27761      3607  TIP3      OH2            13.3541605787      -30.1742164307      -38.7421252897  TIP3      3471            0.0000000000
     27762      3607  TIP3      H1             13.5180224240      -30.9231922848      -38.1392984421  TIP3      3471            0.0000000000
     27763      3607  TIP3      H2             13.7242166005      -29.4356855207      -38.2161722685  TIP3      3471            0.0000000000
     27764      3608  TIP3      OH2            14.9922424451      -15.2648305706      -40.7112054202  TIP3      3472            0.0000000000
     27765      3608  TIP3      H1             15.9599117090      -15.4124933514      -40.7713526158  TIP3      3472            0.0000000000
     27766      3608  TIP3      H2             14.6874999853      -15.9627558193      -41.3162738854  TIP3      3472            0.0000000000
     27767      3609  TIP3      OH2            21.8085157049      -16.3458486868      -37.1752186851  TIP3      3473            0.0000000000
     27768      3609  TIP3      H1             21.6911605295      -17.1336630639      -37.7711819690  TIP3      3473            0.0000000000
     27769      3609  TIP3      H2             21.6336499180      -15.6207052120      -37.8068920775  TIP3      3473            0.0000000000
     27770      3610  TIP3      OH2             7.6082037409      -31.9227389122      -26.5714729411  TIP3      3474            0.0000000000
     27771      3610  TIP3      H1              6.9088046234      -32.6026424360      -26.4812500304  TIP3      3474            0.0000000000
     27772      3610  TIP3      H2              8.2671333190      -32.2532077535      -25.9129567240  TIP3      3474            0.0000000000
     27773      3611  TIP3      OH2             9.4717091032       33.2637752473      -24.9230818673  TIP3      3475            0.0000000000
     27774      3611  TIP3      H1             10.0320940775       33.6741290797      -24.2392858913  TIP3      3475            0.0000000000
     27775      3611  TIP3      H2              9.2837289144       32.3945184640      -24.5217176447  TIP3      3475            0.0000000000
     27776      3612  TIP3      OH2             8.5179119442      -15.3266248438      -41.5462977139  TIP3      3476            0.0000000000
     27777      3612  TIP3      H1              7.5519863027      -15.2045229078      -41.4815606687  TIP3      3476            0.0000000000
     27778      3612  TIP3      H2              8.6684567011      -16.1634587428      -41.0944241551  TIP3      3476            0.0000000000
     27779      3613  TIP3      OH2            16.6914613822       33.0555186194      -23.9941400860  TIP3      3477            0.0000000000
     27780      3613  TIP3      H1             17.0916849574       32.3527267634      -23.4584998621  TIP3      3477            0.0000000000
     27781      3613  TIP3      H2             16.9155023352       32.7673169647      -24.8948553853  TIP3      3477            0.0000000000
     27782      3614  TIP3      OH2            21.3643930957      -17.3340729903      -25.5778088654  TIP3      3478            0.0000000000
     27783      3614  TIP3      H1             20.9726457895      -17.4879405762      -26.4603387653  TIP3      3478            0.0000000000
     27784      3614  TIP3      H2             21.1658808425      -16.3807629079      -25.4686445902  TIP3      3478            0.0000000000
     27785      3615  TIP3      OH2            26.6065908404      -24.6738686754      -30.5016644276  TIP3      3479            0.0000000000
     27786      3615  TIP3      H1             26.5520898282      -25.4192138099      -29.8646495919  TIP3      3479            0.0000000000
     27787      3615  TIP3      H2             27.2394054167      -24.0985786577      -30.0233262103  TIP3      3479            0.0000000000
     27788      3616  TIP3      OH2            27.6852129754      -19.6133339195      -32.9049419280  TIP3      3480            0.0000000000
     27789      3616  TIP3      H1             27.3319717582      -20.5217810328      -32.8296598436  TIP3      3480            0.0000000000
     27790      3616  TIP3      H2             28.6262868945      -19.8033499971      -32.6863265887  TIP3      3480            0.0000000000
     27791      3617  TIP3      OH2            24.1863096053      -26.8893248199      -36.3316225133  TIP3      3481            0.0000000000
     27792      3617  TIP3      H1             24.1260015384      -25.9241693618      -36.3836125967  TIP3      3481            0.0000000000
     27793      3617  TIP3      H2             23.4011030528      -27.1178808696      -36.8616538701  TIP3      3481            0.0000000000
     27794      3618  TIP3      OH2            25.3632037681      -24.1625206623      -33.8033078414  TIP3      3482            0.0000000000
     27795      3618  TIP3      H1             25.6910226276      -25.0884760259      -33.7815713702  TIP3      3482            0.0000000000
     27796      3618  TIP3      H2             25.5412691087      -23.8674503109      -34.7060030845  TIP3      3482            0.0000000000
     27797      3619  TIP3      OH2           -33.3464192442      -21.4130458619      -30.6826272942  TIP3      3483            0.0000000000
     27798      3619  TIP3      H1            -32.9338562106      -21.9900429409      -31.3471038455  TIP3      3483            0.0000000000
     27799      3619  TIP3      H2            -33.2215835900      -20.5171557301      -31.0530411899  TIP3      3483            0.0000000000
     27800      3620  TIP3      OH2            29.0189636588      -28.9218046069      -34.1378405309  TIP3      3484            0.0000000000
     27801      3620  TIP3      H1             29.2800484331      -28.3126832289      -34.8639102758  TIP3      3484            0.0000000000
     27802      3620  TIP3      H2             28.5768840296      -29.6141922116      -34.6754757859  TIP3      3484            0.0000000000
     27803      3621  TIP3      OH2            26.0309450841      -26.9589587705      -33.4685728112  TIP3      3485            0.0000000000
     27804      3621  TIP3      H1             26.6197285230      -27.5560475523      -32.9583514737  TIP3      3485            0.0000000000
     27805      3621  TIP3      H2             26.3140352190      -27.1272823587      -34.3871280903  TIP3      3485            0.0000000000
     27806      3622  TIP3      OH2            31.1690134086      -25.1941515469      -34.3643740215  TIP3      3486            0.0000000000
     27807      3622  TIP3      H1             31.9564166344      -25.7207013535      -34.1180880406  TIP3      3486            0.0000000000
     27808      3622  TIP3      H2             30.5653752472      -25.8845893174      -34.7159497650  TIP3      3486            0.0000000000
     27809      3623  TIP3      OH2            27.6621837050      -30.5587564768      -30.1139200091  TIP3      3487            0.0000000000
     27810      3623  TIP3      H1             27.5384696851      -29.9013305188      -30.8332797979  TIP3      3487            0.0000000000
     27811      3623  TIP3      H2             26.9314887608      -30.2876369479      -29.5206621323  TIP3      3487            0.0000000000
     27812      3624  TIP3      OH2            30.5420360462      -22.6243891238      -30.0658119130  TIP3      3488            0.0000000000
     27813      3624  TIP3      H1             29.8743522637      -21.9840201415      -29.7286034529  TIP3      3488            0.0000000000
     27814      3624  TIP3      H2             31.2682514190      -22.0344570633      -30.3630748842  TIP3      3488            0.0000000000
     27815      3625  TIP3      OH2            27.7885985795      -28.4050712812      -31.8578523885  TIP3      3489            0.0000000000
     27816      3625  TIP3      H1             28.3025796795      -27.6768596855      -31.4463583031  TIP3      3489            0.0000000000
     27817      3625  TIP3      H2             28.3062829323      -28.5694532035      -32.6927086494  TIP3      3489            0.0000000000
     27818      3626  TIP3      OH2            28.7864707589      -20.8296416586      -29.3069704829  TIP3      3490            0.0000000000
     27819      3626  TIP3      H1             28.7103983746      -20.2696907780      -30.0959781711  TIP3      3490            0.0000000000
     27820      3626  TIP3      H2             27.9539094676      -20.6063666457      -28.8224067747  TIP3      3490            0.0000000000
     27821      3627  TIP3      OH2            24.9217316559      -21.1720451044      -37.9971558589  TIP3      3491            0.0000000000
     27822      3627  TIP3      H1             24.7995637237      -20.7242767234      -38.8576272305  TIP3      3491            0.0000000000
     27823      3627  TIP3      H2             25.1455677843      -20.3756343030      -37.4476947101  TIP3      3491            0.0000000000
     27824      3628  TIP3      OH2            32.0413141110      -32.6305978555      -32.0846178339  TIP3      3492            0.0000000000
     27825      3628  TIP3      H1             32.0119830966      -33.1967468381      -32.8729983365  TIP3      3492            0.0000000000
     27826      3628  TIP3      H2             31.1675957008      -32.1958690719      -32.0783272943  TIP3      3492            0.0000000000
     27827      3629  TIP3      OH2            29.0383326474      -23.4902040658      -35.0648260880  TIP3      3493            0.0000000000
     27828      3629  TIP3      H1             29.0799117081      -23.8235067671      -35.9788506223  TIP3      3493            0.0000000000
     27829      3629  TIP3      H2             29.8003191464      -23.9718003283      -34.6948197826  TIP3      3493            0.0000000000
     27830      3630  TIP3      OH2            30.3415394313      -20.3890906777      -32.5068737257  TIP3      3494            0.0000000000
     27831      3630  TIP3      H1             30.4190110730      -20.2477587808      -33.4707406288  TIP3      3494            0.0000000000
     27832      3630  TIP3      H2             31.2426779353      -20.6171963558      -32.2456810192  TIP3      3494            0.0000000000
     27833      3631  TIP3      OH2            29.3529436350      -24.4296175126      -31.6017171516  TIP3      3495            0.0000000000
     27834      3631  TIP3      H1             28.7170087364      -24.1433278631      -32.2823401930  TIP3      3495            0.0000000000
     27835      3631  TIP3      H2             29.6256748109      -23.5632690010      -31.2253962009  TIP3      3495            0.0000000000
     27836      3632  TIP3      OH2            30.4432283506      -20.4368339449      -27.2298349963  TIP3      3496            0.0000000000
     27837      3632  TIP3      H1             29.9743489247      -19.6883429006      -26.8117542576  TIP3      3496            0.0000000000
     27838      3632  TIP3      H2             29.9224654937      -20.5453457667      -28.0559984721  TIP3      3496            0.0000000000
     27839      3633  TIP3      OH2            27.9022392124      -23.4957926871      -28.4102292497  TIP3      3497            0.0000000000
     27840      3633  TIP3      H1             28.1256755336      -22.5466635098      -28.3477347908  TIP3      3497            0.0000000000
     27841      3633  TIP3      H2             27.2676848418      -23.5916368613      -27.6830580633  TIP3      3497            0.0000000000
     27842      3634  TIP3      OH2            28.7755861509      -18.5862844363      -26.0466707515  TIP3      3498            0.0000000000
     27843      3634  TIP3      H1             28.6114248221      -18.1772922239      -26.9216409484  TIP3      3498            0.0000000000
     27844      3634  TIP3      H2             27.8735796498      -18.7861786675      -25.7178981855  TIP3      3498            0.0000000000
     27845      3635  TIP3      OH2            28.5301781877      -24.2931361332      -37.9678352475  TIP3      3499            0.0000000000
     27846      3635  TIP3      H1             27.9954798626      -23.5035465630      -38.2140801370  TIP3      3499            0.0000000000
     27847      3635  TIP3      H2             27.8634584842      -24.9846043362      -37.8439100275  TIP3      3499            0.0000000000
     27848      3636  TIP3      OH2            24.4580950080      -21.8286631298      -28.3582906555  TIP3      3500            0.0000000000
     27849      3636  TIP3      H1             24.1265312145      -21.8776294200      -29.2674945601  TIP3      3500            0.0000000000
     27850      3636  TIP3      H2             24.4431602466      -22.7909353520      -28.1323187822  TIP3      3500            0.0000000000
     27851      3637  TIP3      OH2            24.5155428347      -18.8570785164      -32.2730953773  TIP3      3501            0.0000000000
     27852      3637  TIP3      H1             25.3826974082      -19.2174287840      -32.5058672675  TIP3      3501            0.0000000000
     27853      3637  TIP3      H2             24.7356841628      -18.3185643447      -31.4999652368  TIP3      3501            0.0000000000
     27854      3638  TIP3      OH2            27.4799090890      -16.2681403244      -35.7725960059  TIP3      3502            0.0000000000
     27855      3638  TIP3      H1             27.6549697572      -16.5713183209      -34.8446902073  TIP3      3502            0.0000000000
     27856      3638  TIP3      H2             26.6383817066      -16.7079031107      -35.9748964353  TIP3      3502            0.0000000000
     27857      3639  TIP3      OH2            26.6693295253      -20.5312971763      -27.7640699677  TIP3      3503            0.0000000000
     27858      3639  TIP3      H1             26.7937929352      -20.8646847910      -26.8528537626  TIP3      3503            0.0000000000
     27859      3639  TIP3      H2             25.8197099146      -20.9602774336      -28.0278769121  TIP3      3503            0.0000000000
     27860      3640  TIP3      OH2            29.2810808021      -31.5415971706      -32.1339556597  TIP3      3504            0.0000000000
     27861      3640  TIP3      H1             28.5020552424      -31.6726273995      -32.7288264296  TIP3      3504            0.0000000000
     27862      3640  TIP3      H2             28.8198893506      -31.2691977944      -31.3202440319  TIP3      3504            0.0000000000
     27863      3641  TIP3      OH2            29.2558746948      -26.7625913461      -30.0409491871  TIP3      3505            0.0000000000
     27864      3641  TIP3      H1             28.5684297307      -26.9116034916      -29.3451123542  TIP3      3505            0.0000000000
     27865      3641  TIP3      H2             28.8677176579      -25.9996954542      -30.5187114669  TIP3      3505            0.0000000000
     27866      3642  TIP3      OH2            29.2443452316      -26.6579940522      -35.7255178235  TIP3      3506            0.0000000000
     27867      3642  TIP3      H1             28.2663905329      -26.7105263035      -35.7503096480  TIP3      3506            0.0000000000
     27868      3642  TIP3      H2             29.4428363124      -26.8655692958      -36.6711103897  TIP3      3506            0.0000000000
     27869      3643  TIP3      OH2            26.8907671468      -27.0252248507      -28.8592675356  TIP3      3507            0.0000000000
     27870      3643  TIP3      H1             26.4705110305      -26.8462464930      -28.0107881473  TIP3      3507            0.0000000000
     27871      3643  TIP3      H2             26.4246713809      -27.8472060215      -29.0961697338  TIP3      3507            0.0000000000
     27872      3644  TIP3      OH2            31.1655181542      -29.1029772483      -41.1472989820  TIP3      3508            0.0000000000
     27873      3644  TIP3      H1             30.6205364011      -29.8311898984      -40.8029933379  TIP3      3508            0.0000000000
     27874      3644  TIP3      H2             30.5456370774      -28.3548476977      -41.0429824153  TIP3      3508            0.0000000000
     27875      3645  TIP3      OH2            23.8068598949      -29.4856923747      -34.8618143086  TIP3      3509            0.0000000000
     27876      3645  TIP3      H1             24.4334687489      -29.6565432952      -34.1312589640  TIP3      3509            0.0000000000
     27877      3645  TIP3      H2             23.9296659253      -28.5409353323      -35.0282820928  TIP3      3509            0.0000000000
     27878      3646  TIP3      OH2            25.5406272795      -29.0847720495      -39.0580890399  TIP3      3510            0.0000000000
     27879      3646  TIP3      H1             26.0618816323      -29.0112635409      -39.8745205255  TIP3      3510            0.0000000000
     27880      3646  TIP3      H2             25.3693112292      -28.1452493622      -38.9246994505  TIP3      3510            0.0000000000
     27881      3647  TIP3      OH2            31.6343730904      -28.9273661754      -34.4685110084  TIP3      3511            0.0000000000
     27882      3647  TIP3      H1             30.8890197158      -29.2372638445      -33.9134427154  TIP3      3511            0.0000000000
     27883      3647  TIP3      H2             32.4048499108      -29.3181577908      -34.0479824300  TIP3      3511            0.0000000000
     27884      3648  TIP3      OH2            26.6962608849      -27.4848995244      -36.0313877814  TIP3      3512            0.0000000000
     27885      3648  TIP3      H1             25.7281186011      -27.5612247553      -36.2333474489  TIP3      3512            0.0000000000
     27886      3648  TIP3      H2             27.0253545053      -28.4028902756      -36.1847883588  TIP3      3512            0.0000000000
     27887      3649  TIP3      OH2            29.6980395518      -27.6746255650      -38.1624923127  TIP3      3513            0.0000000000
     27888      3649  TIP3      H1             30.6493803409      -27.8149525240      -37.9485432423  TIP3      3513            0.0000000000
     27889      3649  TIP3      H2             29.7502411052      -27.3228642390      -39.0745420249  TIP3      3513            0.0000000000
     27890      3650  TIP3      OH2            29.7093839163      -26.9305074591      -40.8047398681  TIP3      3514            0.0000000000
     27891      3650  TIP3      H1             28.8721144808      -26.8965468408      -41.2940261615  TIP3      3514            0.0000000000
     27892      3650  TIP3      H2             30.2516850091      -26.2945050376      -41.3044641161  TIP3      3514            0.0000000000
     27893      3651  TIP3      OH2            26.9464957402      -21.8467481903      -25.2202171295  TIP3      3515            0.0000000000
     27894      3651  TIP3      H1             27.7415252561      -22.0968181685      -24.7203411015  TIP3      3515            0.0000000000
     27895      3651  TIP3      H2             26.2669585211      -22.3436266242      -24.7100959693  TIP3      3515            0.0000000000
     27896      3652  TIP3      OH2           -33.2616479154      -26.8325055786      -33.2545870626  TIP3      3516            0.0000000000
     27897      3652  TIP3      H1            -32.3771221608      -26.5371968357      -33.5198738738  TIP3      3516            0.0000000000
     27898      3652  TIP3      H2            -33.1515151985      -27.7849407887      -33.1291756390  TIP3      3516            0.0000000000
     27899      3653  TIP3      OH2            27.6506759512      -30.0169907277      -36.0892988525  TIP3      3517            0.0000000000
     27900      3653  TIP3      H1             27.0844239252      -30.7970737739      -35.9490855403  TIP3      3517            0.0000000000
     27901      3653  TIP3      H2             28.1935356829      -30.3119662743      -36.8337592861  TIP3      3517            0.0000000000
     27902      3654  TIP3      OH2            31.1661997940      -28.5637708806      -30.6379404335  TIP3      3518            0.0000000000
     27903      3654  TIP3      H1             30.5511897569      -27.9075276268      -30.2503134347  TIP3      3518            0.0000000000
     27904      3654  TIP3      H2             32.0498640616      -28.1715377356      -30.4555808751  TIP3      3518            0.0000000000
     27905      3655  TIP3      OH2            32.5246072715      -22.3911103716      -38.4765685767  TIP3      3519            0.0000000000
     27906      3655  TIP3      H1             31.7500073632      -22.8508080132      -38.8339412666  TIP3      3519            0.0000000000
     27907      3655  TIP3      H2             32.1249196020      -21.9958095199      -37.6659163658  TIP3      3519            0.0000000000
     27908      3656  TIP3      OH2            27.3831583942      -22.4885416668      -32.7552900502  TIP3      3520            0.0000000000
     27909      3656  TIP3      H1             27.6917300214      -22.5450395376      -33.6795396182  TIP3      3520            0.0000000000
     27910      3656  TIP3      H2             26.6669363831      -23.1536420130      -32.7534691798  TIP3      3520            0.0000000000
     27911      3657  TIP3      OH2            24.3253153304      -24.3726085752      -27.5696181788  TIP3      3521            0.0000000000
     27912      3657  TIP3      H1             24.2439354497      -25.0089749025      -26.8197473254  TIP3      3521            0.0000000000
     27913      3657  TIP3      H2             23.5139213770      -24.6280589279      -28.0573741259  TIP3      3521            0.0000000000
     27914      3658  TIP3      OH2            32.0112838869      -24.9405555362      -25.9304840371  TIP3      3522            0.0000000000
     27915      3658  TIP3      H1             31.2670039892      -25.1002510725      -26.5538769815  TIP3      3522            0.0000000000
     27916      3658  TIP3      H2             32.4967639250      -25.7742822507      -25.9804087446  TIP3      3522            0.0000000000
     27917      3659  TIP3      OH2            30.0898588239      -19.2396885978      -35.1340133058  TIP3      3523            0.0000000000
     27918      3659  TIP3      H1             30.5908912801      -18.4809201576      -35.4753481374  TIP3      3523            0.0000000000
     27919      3659  TIP3      H2             29.1973131120      -18.9869618065      -35.4152305712  TIP3      3523            0.0000000000
     27920      3660  TIP3      OH2            25.9717358302      -24.3094634511      -41.4470170227  TIP3      3524            0.0000000000
     27921      3660  TIP3      H1             26.3124841095      -23.8599812816      -40.6550764514  TIP3      3524            0.0000000000
     27922      3660  TIP3      H2             25.0158480660      -24.3453765472      -41.2607199071  TIP3      3524            0.0000000000
     27923      3661  TIP3      OH2            31.4739427180      -21.3271046268      -36.2073113748  TIP3      3525            0.0000000000
     27924      3661  TIP3      H1             30.9425156213      -20.5706174973      -35.8823996529  TIP3      3525            0.0000000000
     27925      3661  TIP3      H2             31.1973230151      -22.0350352995      -35.6026706536  TIP3      3525            0.0000000000
     27926      3662  TIP3      OH2            31.7252421310      -17.3129701272      -29.1218031298  TIP3      3526            0.0000000000
     27927      3662  TIP3      H1             32.1737229613      -16.4558445956      -29.1637452428  TIP3      3526            0.0000000000
     27928      3662  TIP3      H2             32.2789615630      -17.7961567071      -28.4890189372  TIP3      3526            0.0000000000
     27929      3663  TIP3      OH2            30.1236191275      -15.8987641078      -36.4750205378  TIP3      3527            0.0000000000
     27930      3663  TIP3      H1             29.1924565068      -15.9659853622      -36.1721942499  TIP3      3527            0.0000000000
     27931      3663  TIP3      H2             30.3996411166      -15.0673839735      -36.0223025753  TIP3      3527            0.0000000000
     27932      3664  TIP3      OH2            25.6209062872      -29.7210497565      -28.1586374080  TIP3      3528            0.0000000000
     27933      3664  TIP3      H1             25.2786828206      -29.0543652509      -27.5169616482  TIP3      3528            0.0000000000
     27934      3664  TIP3      H2             25.8263230220      -30.4584408849      -27.5597684628  TIP3      3528            0.0000000000
     27935      3665  TIP3      OH2            25.9486575442      -17.6932547599      -29.4337892158  TIP3      3529            0.0000000000
     27936      3665  TIP3      H1             26.5158240032      -18.4572836088      -29.2502230188  TIP3      3529            0.0000000000
     27937      3665  TIP3      H2             26.2239162685      -17.0966056762      -28.7243125578  TIP3      3529            0.0000000000
     27938      3666  TIP3      OH2            30.3655343758      -19.5215174677      -39.9057052474  TIP3      3530            0.0000000000
     27939      3666  TIP3      H1             30.8915508413      -20.0592306016      -39.3017786911  TIP3      3530            0.0000000000
     27940      3666  TIP3      H2             30.4773608296      -18.6060180614      -39.5584535836  TIP3      3530            0.0000000000
     27941      3667  TIP3      OH2            26.9289391038      -22.4445601159      -39.2785989442  TIP3      3531            0.0000000000
     27942      3667  TIP3      H1             26.0478955229      -22.2016919153      -38.9126117262  TIP3      3531            0.0000000000
     27943      3667  TIP3      H2             27.2389869453      -21.5585473170      -39.5591872917  TIP3      3531            0.0000000000
     27944      3668  TIP3      OH2            32.0765060852      -28.2229902038      -37.1566777844  TIP3      3532            0.0000000000
     27945      3668  TIP3      H1             33.0080323268      -28.4466605804      -37.0894079786  TIP3      3532            0.0000000000
     27946      3668  TIP3      H2             31.7620123964      -28.4011810421      -36.2434534997  TIP3      3532            0.0000000000
     27947      3669  TIP3      OH2            30.5814375915      -16.9048011697      -38.9246568198  TIP3      3533            0.0000000000
     27948      3669  TIP3      H1             30.6246203310      -16.1425003690      -39.5297911144  TIP3      3533            0.0000000000
     27949      3669  TIP3      H2             30.3077905504      -16.4600246067      -38.0870596234  TIP3      3533            0.0000000000
     27950      3670  TIP3      OH2            28.9629037766      -30.0076964867      -39.7306337947  TIP3      3534            0.0000000000
     27951      3670  TIP3      H1             28.8804398218      -29.2503441222      -39.1235534006  TIP3      3534            0.0000000000
     27952      3670  TIP3      H2             29.7232860876      -30.4745299143      -39.2973143160  TIP3      3534            0.0000000000
     27953      3671  TIP3      OH2            27.5654555238      -19.9162512098      -40.5348891510  TIP3      3535            0.0000000000
     27954      3671  TIP3      H1             28.3114019881      -19.4672481351      -40.1013365985  TIP3      3535            0.0000000000
     27955      3671  TIP3      H2             28.0610236551      -20.5089119621      -41.1450694184  TIP3      3535            0.0000000000
     27956      3672  TIP3      OH2            26.1218274773      -26.9860183477      -40.8384921337  TIP3      3536            0.0000000000
     27957      3672  TIP3      H1             26.3603918508      -26.0455340807      -40.7703607343  TIP3      3536            0.0000000000
     27958      3672  TIP3      H2             25.4246175517      -26.9245318985      -41.4932663542  TIP3      3536            0.0000000000
     27959      3673  TIP3      OH2            26.8750618442      -32.2826557635      -33.0251314262  TIP3      3537            0.0000000000
     27960      3673  TIP3      H1             26.6131027779      -32.4288743250      -33.9627051677  TIP3      3537            0.0000000000
     27961      3673  TIP3      H2             26.6437653538      -33.1299640973      -32.6004065005  TIP3      3537            0.0000000000
     27962      3674  TIP3      OH2            25.2304189087      -18.7197076636      -36.9063902312  TIP3      3538            0.0000000000
     27963      3674  TIP3      H1             24.6515096776      -18.1368395310      -36.3980531932  TIP3      3538            0.0000000000
     27964      3674  TIP3      H2             25.4739312129      -18.0968104124      -37.6281265526  TIP3      3538            0.0000000000
     27965      3675  TIP3      OH2            24.7330752837      -15.5670073818      -25.0064749859  TIP3      3539            0.0000000000
     27966      3675  TIP3      H1             25.1485806652      -15.6744818283      -24.1335204663  TIP3      3539            0.0000000000
     27967      3675  TIP3      H2             24.2506680414      -16.4012274172      -25.1391065659  TIP3      3539            0.0000000000
     27968      3676  TIP3      OH2            28.4940326408      -16.4711104084      -24.1398047618  TIP3      3540            0.0000000000
     27969      3676  TIP3      H1             29.1888288101      -16.7058102509      -23.5043275547  TIP3      3540            0.0000000000
     27970      3676  TIP3      H2             28.7088797532      -17.0512385779      -24.9025164493  TIP3      3540            0.0000000000
     27971      3677  TIP3      OH2            24.6720696123      -22.8269764359      -23.8626055214  TIP3      3541            0.0000000000
     27972      3677  TIP3      H1             23.9635332848      -23.2455353421      -23.3272382928  TIP3      3541            0.0000000000
     27973      3677  TIP3      H2             24.1252607728      -22.4029720208      -24.5504829706  TIP3      3541            0.0000000000
     27974      3678  TIP3      OH2            28.9126247182      -21.7951914636      -41.9750206364  TIP3      3542            0.0000000000
     27975      3678  TIP3      H1             29.3377148890      -22.3595185324      -41.2974533168  TIP3      3542            0.0000000000
     27976      3678  TIP3      H2             29.5803202998      -21.7798986083      -42.6746048270  TIP3      3542            0.0000000000
     27977      3679  TIP3      OH2            31.2290560512      -21.7386571022      -25.0159976686  TIP3      3543            0.0000000000
     27978      3679  TIP3      H1             30.9941081228      -21.3270475263      -25.8795879151  TIP3      3543            0.0000000000
     27979      3679  TIP3      H2             31.2208691575      -22.6902584692      -25.2363298455  TIP3      3543            0.0000000000
     27980      3680  TIP3      OH2            26.1875778063      -25.0173819994      -24.4768732751  TIP3      3544            0.0000000000
     27981      3680  TIP3      H1             26.1287883422      -25.7730136067      -23.8677080519  TIP3      3544            0.0000000000
     27982      3680  TIP3      H2             25.6085102736      -24.3506223181      -24.0489997184  TIP3      3544            0.0000000000
     27983      3681  TIP3      OH2            30.1613080041      -23.3001591804      -40.0014117747  TIP3      3545            0.0000000000
     27984      3681  TIP3      H1             29.6681511401      -23.8263429712      -39.3293363211  TIP3      3545            0.0000000000
     27985      3681  TIP3      H2             30.7485815061      -23.9757174419      -40.3916387150  TIP3      3545            0.0000000000
     27986      3682  TIP3      OH2            29.6585722936      -25.3342029496      -27.4367474459  TIP3      3546            0.0000000000
     27987      3682  TIP3      H1             28.9016559363      -25.2812307167      -26.8245774009  TIP3      3546            0.0000000000
     27988      3682  TIP3      H2             29.4043191471      -24.7151122889      -28.1515700924  TIP3      3546            0.0000000000
     27989      3683  TIP3      OH2            31.8569699244      -25.0560598190      -41.4902559416  TIP3      3547            0.0000000000
     27990      3683  TIP3      H1             32.2929675480      -25.4276358950      -42.2718039225  TIP3      3547            0.0000000000
     27991      3683  TIP3      H2             32.6510221836      -24.7921498958      -40.9902646975  TIP3      3547            0.0000000000
     27992      3684  TIP3      OH2            30.3463828388      -28.1044646461      -26.9747786789  TIP3      3548            0.0000000000
     27993      3684  TIP3      H1             30.0632250842      -28.7790234236      -27.6389769692  TIP3      3548            0.0000000000
     27994      3684  TIP3      H2             30.0440501282      -27.2566374131      -27.3560134987  TIP3      3548            0.0000000000
     27995      3685  TIP3      OH2            29.8600818265      -29.8517182425      -28.8244156160  TIP3      3549            0.0000000000
     27996      3685  TIP3      H1             30.4530135756      -29.5667445067      -29.5670524636  TIP3      3549            0.0000000000
     27997      3685  TIP3      H2             29.0581833511      -30.1720637244      -29.2912777760  TIP3      3549            0.0000000000
     27998      3686  TIP3      OH2            32.2615625860      -24.3531927926      -29.0270395944  TIP3      3550            0.0000000000
     27999      3686  TIP3      H1             32.9954136616      -24.0029380401      -29.5640760186  TIP3      3550            0.0000000000
     28000      3686  TIP3      H2             31.5592055652      -23.6921706343      -29.2386513581  TIP3      3550            0.0000000000
     28001      3687  TIP3      OH2            28.8297407159      -27.3022055903      -24.9011458308  TIP3      3551            0.0000000000
     28002      3687  TIP3      H1             27.9718811587      -27.7647996137      -24.9078056133  TIP3      3551            0.0000000000
     28003      3687  TIP3      H2             29.3822578643      -27.8112371755      -25.5296818137  TIP3      3551            0.0000000000
     28004      3688  TIP3      OH2            30.5620061848      -32.3542803519      -28.2913358536  TIP3      3552            0.0000000000
     28005      3688  TIP3      H1             30.3455951822      -31.3917165352      -28.3401465610  TIP3      3552            0.0000000000
     28006      3688  TIP3      H2             29.8912056238      -32.7497267751      -28.8748350622  TIP3      3552            0.0000000000
     28007      3689  TIP3      OH2            31.8684812164      -27.9520678185      -24.7541481210  TIP3      3553            0.0000000000
     28008      3689  TIP3      H1             31.3844755964      -28.5964842317      -24.1923892494  TIP3      3553            0.0000000000
     28009      3689  TIP3      H2             31.4943058388      -28.1604081357      -25.6296073519  TIP3      3553            0.0000000000
     28010      3690  TIP3      OH2            26.6314204610      -29.2084119814      -24.5756134466  TIP3      3554            0.0000000000
     28011      3690  TIP3      H1             26.3321318077      -30.0344810562      -25.0059213214  TIP3      3554            0.0000000000
     28012      3690  TIP3      H2             26.9057152721      -29.5819976231      -23.7079083107  TIP3      3554            0.0000000000
     28013      3691  TIP3      OH2            31.9442281725      -32.5136516866      -25.9999436790  TIP3      3555            0.0000000000
     28014      3691  TIP3      H1             31.9016051059      -33.4475886025      -25.7292815012  TIP3      3555            0.0000000000
     28015      3691  TIP3      H2             31.4587028317      -32.5209275610      -26.8475992200  TIP3      3555            0.0000000000
     28016      3692  TIP3      OH2            31.1819710059      -32.1839192842      -23.4726751462  TIP3      3556            0.0000000000
     28017      3692  TIP3      H1             31.4805784348      -32.0073250897      -24.3933482776  TIP3      3556            0.0000000000
     28018      3692  TIP3      H2             31.1225380688      -31.2893147343      -23.0915203922  TIP3      3556            0.0000000000
     28019      3693  TIP3      OH2            31.0851387848      -14.8990837369      -40.7682614814  TIP3      3557            0.0000000000
     28020      3693  TIP3      H1             31.6310299528      -14.4689372236      -40.0955743820  TIP3      3557            0.0000000000
     28021      3693  TIP3      H2             31.4919627785      -14.6084648621      -41.5922333109  TIP3      3557            0.0000000000
     28022      3694  TIP3      OH2            24.8543727272      -20.5514038176      -41.1078902189  TIP3      3558            0.0000000000
     28023      3694  TIP3      H1             25.7933529361      -20.3116402079      -40.9747226764  TIP3      3558            0.0000000000
     28024      3694  TIP3      H2             24.8154196372      -20.5200225046      -42.0883450452  TIP3      3558            0.0000000000
     28025      3695  TIP3      OH2            23.8133671699      -15.0713278210      -35.8777847150  TIP3      3559            0.0000000000
     28026      3695  TIP3      H1             23.0737450474      -15.5301059957      -36.3388177162  TIP3      3559            0.0000000000
     28027      3695  TIP3      H2             24.0517407171      -15.7488048929      -35.2047608803  TIP3      3559            0.0000000000
     28028      3696  TIP3      OH2            24.7369201933      -16.7143013735      -34.0093579838  TIP3      3560            0.0000000000
     28029      3696  TIP3      H1             24.3184952860      -17.5234801156      -33.6606095941  TIP3      3560            0.0000000000
     28030      3696  TIP3      H2             24.9201359598      -16.2352478616      -33.1733370367  TIP3      3560            0.0000000000
     28031      3697  TIP3      OH2            24.4591742932      -23.3330513500      -31.2227151380  TIP3      3561            0.0000000000
     28032      3697  TIP3      H1             24.5680756993      -23.5733230858      -32.1676906131  TIP3      3561            0.0000000000
     28033      3697  TIP3      H2             25.2554858721      -23.7878919952      -30.8555281429  TIP3      3561            0.0000000000
     28034      3698  TIP3      OH2            24.8052770107      -28.1048603647      -26.1053078225  TIP3      3562            0.0000000000
     28035      3698  TIP3      H1             25.4988032341      -28.2735903102      -25.4259597771  TIP3      3562            0.0000000000
     28036      3698  TIP3      H2             24.1625687070      -28.7963610630      -25.8239148612  TIP3      3562            0.0000000000
     28037      3699  TIP3      OH2            25.3082292344      -30.0516737764      -32.6786785355  TIP3      3563            0.0000000000
     28038      3699  TIP3      H1             25.6378387467      -30.9710769837      -32.6456124805  TIP3      3563            0.0000000000
     28039      3699  TIP3      H2             26.0992517932      -29.5295257762      -32.4689989429  TIP3      3563            0.0000000000
     28040      3700  TIP3      OH2            23.9531291042      -26.7290958075      -31.7871238204  TIP3      3564            0.0000000000
     28041      3700  TIP3      H1             24.6518391321      -26.9718411092      -32.4374721084  TIP3      3564            0.0000000000
     28042      3700  TIP3      H2             24.4468503681      -26.1235300314      -31.2185925656  TIP3      3564            0.0000000000
     28043      3701  TIP3      OH2            23.6672905122      -30.6454171618      -37.5670633146  TIP3      3565            0.0000000000
     28044      3701  TIP3      H1             22.8278131828      -30.2553435554      -37.2648781451  TIP3      3565            0.0000000000
     28045      3701  TIP3      H2             24.1167165319      -29.8879057418      -37.9687537483  TIP3      3565            0.0000000000
     28046      3702  TIP3      OH2            23.6687862497      -32.0228256417      -29.4223174919  TIP3      3566            0.0000000000
     28047      3702  TIP3      H1             24.3748900693      -31.5532523456      -28.9544168583  TIP3      3566            0.0000000000
     28048      3702  TIP3      H2             23.2525355715      -31.3329180522      -29.9856197061  TIP3      3566            0.0000000000
     28049      3703  TIP3      OH2            26.1815534695      -19.0527499570      -25.1647754641  TIP3      3567            0.0000000000
     28050      3703  TIP3      H1             25.4030787697      -18.6245427433      -25.5624120184  TIP3      3567            0.0000000000
     28051      3703  TIP3      H2             25.9650591063      -19.9936706299      -25.2578335833  TIP3      3567            0.0000000000
     28052      3704  TIP3      OH2            29.1031310292      -17.3659211713      -28.5395065608  TIP3      3568            0.0000000000
     28053      3704  TIP3      H1             28.9631632420      -16.4463168160      -28.8593562047  TIP3      3568            0.0000000000
     28054      3704  TIP3      H2             30.0716200571      -17.4390388316      -28.6855941795  TIP3      3568            0.0000000000
     28055      3705  TIP3      OH2            26.4168940470      -14.3095647410      -28.8316116787  TIP3      3569            0.0000000000
     28056      3705  TIP3      H1             25.6689432881      -14.0554518294      -29.4078236545  TIP3      3569            0.0000000000
     28057      3705  TIP3      H2             26.0700007521      -14.1292452571      -27.9497341509  TIP3      3569            0.0000000000
     28058      3706  TIP3      OH2            28.7991996995      -14.9561129457      -29.6586688631  TIP3      3570            0.0000000000
     28059      3706  TIP3      H1             27.9219498795      -14.6412308934      -29.3223719634  TIP3      3570            0.0000000000
     28060      3706  TIP3      H2             28.8876118456      -14.3719980857      -30.4471810020  TIP3      3570            0.0000000000
     28061      3707  TIP3      OH2            26.3957268805      -15.9276608281      -31.7597274549  TIP3      3571            0.0000000000
     28062      3707  TIP3      H1             26.3882935542      -16.4388446412      -30.9267694734  TIP3      3571            0.0000000000
     28063      3707  TIP3      H2             27.2188366876      -16.2442186005      -32.1957691892  TIP3      3571            0.0000000000
     28064      3708  TIP3      OH2            28.2982497710      -17.0052914600      -33.3867208345  TIP3      3572            0.0000000000
     28065      3708  TIP3      H1             28.0318235879      -17.9368253620      -33.2421412978  TIP3      3572            0.0000000000
     28066      3708  TIP3      H2             29.1501837323      -17.0190913735      -32.8850307678  TIP3      3572            0.0000000000
     28067      3709  TIP3      OH2            30.3504617907      -17.3514504317      -31.8554258071  TIP3      3573            0.0000000000
     28068      3709  TIP3      H1             31.0838360307      -17.9116464455      -32.1397995224  TIP3      3573            0.0000000000
     28069      3709  TIP3      H2             30.5023974093      -17.2804813516      -30.9017383240  TIP3      3573            0.0000000000
     28070      3710  TIP3      OH2            26.2371296149      -32.4999237721      -35.7627970510  TIP3      3574            0.0000000000
     28071      3710  TIP3      H1             25.5409829119      -32.6421411973      -36.4323089375  TIP3      3574            0.0000000000
     28072      3710  TIP3      H2             26.9851794821      -33.0098782773      -36.1372032321  TIP3      3574            0.0000000000
     28073      3711  TIP3      OH2            25.1656445341      -32.6024424175      -38.7645504226  TIP3      3575            0.0000000000
     28074      3711  TIP3      H1             25.7952901563      -32.1315586917      -39.3415426488  TIP3      3575            0.0000000000
     28075      3711  TIP3      H2             24.7170553413      -31.8663832624      -38.2916509541  TIP3      3575            0.0000000000
     28076      3712  TIP3      OH2            30.2511241704      -32.2838379469      -35.2459469767  TIP3      3576            0.0000000000
     28077      3712  TIP3      H1             31.0101017711      -31.7035692039      -35.1141213885  TIP3      3576            0.0000000000
     28078      3712  TIP3      H2             30.6891122044      -33.1297307800      -35.3770178452  TIP3      3576            0.0000000000
     28079      3713  TIP3      OH2            25.1745928668      -16.6873887544      -38.6189026534  TIP3      3577            0.0000000000
     28080      3713  TIP3      H1             24.3181814096      -16.6831867643      -39.0929322875  TIP3      3577            0.0000000000
     28081      3713  TIP3      H2             25.3963189910      -15.7459501240      -38.7569921177  TIP3      3577            0.0000000000
     28082      3714  TIP3      OH2            26.9533579519      -31.7660457850      -40.6856941989  TIP3      3578            0.0000000000
     28083      3714  TIP3      H1             27.4026832371      -31.4469210152      -41.4825910945  TIP3      3578            0.0000000000
     28084      3714  TIP3      H2             27.6313097473      -31.4844515710      -40.0435747009  TIP3      3578            0.0000000000
     28085      3715  TIP3      OH2            31.0792759326      -31.1330516945      -38.7587968330  TIP3      3579            0.0000000000
     28086      3715  TIP3      H1             31.3835557063      -31.9316467059      -39.2051888634  TIP3      3579            0.0000000000
     28087      3715  TIP3      H2             31.9257815380      -30.8506680734      -38.3541962634  TIP3      3579            0.0000000000
     28088      3716  TIP3      OH2            25.9980651548      -31.7335715002      -25.7889697752  TIP3      3580            0.0000000000
     28089      3716  TIP3      H1             25.4934065365      -32.4989568638      -26.1172844535  TIP3      3580            0.0000000000
     28090      3716  TIP3      H2             26.4688294082      -32.1119807725      -25.0244212608  TIP3      3580            0.0000000000
     28091      3717  TIP3      OH2            28.5486702277      -32.8581514819      -23.8006717226  TIP3      3581            0.0000000000
     28092      3717  TIP3      H1             29.4487683738      -32.4865281176      -23.6866949305  TIP3      3581            0.0000000000
     28093      3717  TIP3      H2             28.6206733179      -33.6964566674      -23.3285265915  TIP3      3581            0.0000000000
     28094      3718  TIP3      OH2            27.1409299027      -15.0759339685      -41.6153002262  TIP3      3582            0.0000000000
     28095      3718  TIP3      H1             26.2742812180      -14.9432362220      -41.2031089412  TIP3      3582            0.0000000000
     28096      3718  TIP3      H2             27.4056861195      -15.9302998821      -41.2550009139  TIP3      3582            0.0000000000
     28097      3719  TIP3      OH2           -20.5949465963       -4.3833633056      -35.4151360433  TIP3      3583            0.0000000000
     28098      3719  TIP3      H1            -20.9264692642       -3.4691681517      -35.3306688898  TIP3      3583            0.0000000000
     28099      3719  TIP3      H2            -21.3099723894       -4.7875501008      -35.9172768488  TIP3      3583            0.0000000000
     28100      3720  TIP3      OH2           -22.2337503114       -5.5301992453      -32.1361300146  TIP3      3584            0.0000000000
     28101      3720  TIP3      H1            -21.9689989167       -6.0879317813      -31.3831231531  TIP3      3584            0.0000000000
     28102      3720  TIP3      H2            -22.8375996352       -6.0958828192      -32.6345011387  TIP3      3584            0.0000000000
     28103      3721  TIP3      OH2           -29.4808418701       -5.6285544514      -30.6066304469  TIP3      3585            0.0000000000
     28104      3721  TIP3      H1            -29.6398214733       -6.5316657464      -30.2518360202  TIP3      3585            0.0000000000
     28105      3721  TIP3      H2            -29.1327074160       -5.1896162322      -29.7975989372  TIP3      3585            0.0000000000
     28106      3722  TIP3      OH2           -18.5670037755       -2.5578089354      -33.5077110199  TIP3      3586            0.0000000000
     28107      3722  TIP3      H1            -18.8747657949       -3.2718429437      -32.9235631092  TIP3      3586            0.0000000000
     28108      3722  TIP3      H2            -18.1181619965       -1.9598434949      -32.8881567490  TIP3      3586            0.0000000000
     28109      3723  TIP3      OH2           -28.7849416348       -1.0378887119      -32.7310977292  TIP3      3587            0.0000000000
     28110      3723  TIP3      H1            -28.9395572359       -1.9464284688      -32.4123419671  TIP3      3587            0.0000000000
     28111      3723  TIP3      H2            -27.8079754809       -1.0229775855      -32.5939854237  TIP3      3587            0.0000000000
     28112      3724  TIP3      OH2           -32.5430071467       -6.7754519002      -36.3040477472  TIP3      3588            0.0000000000
     28113      3724  TIP3      H1            -32.5985516745       -6.2002803963      -37.0721225866  TIP3      3588            0.0000000000
     28114      3724  TIP3      H2            -32.8672817624       -7.6156039593      -36.6871947432  TIP3      3588            0.0000000000
     28115      3725  TIP3      OH2           -31.5795233308       -5.3593809581      -34.1721417469  TIP3      3589            0.0000000000
     28116      3725  TIP3      H1            -31.2000873862       -6.2181979693      -33.8881075373  TIP3      3589            0.0000000000
     28117      3725  TIP3      H2            -32.0858678680       -5.7199079670      -34.9486565847  TIP3      3589            0.0000000000
     28118      3726  TIP3      OH2           -21.1810739996        2.8362245680      -33.8746974550  TIP3      3590            0.0000000000
     28119      3726  TIP3      H1            -20.4498751411        2.3150194321      -34.2802600777  TIP3      3590            0.0000000000
     28120      3726  TIP3      H2            -21.3368995401        2.2747522719      -33.1056987664  TIP3      3590            0.0000000000
     28121      3727  TIP3      OH2           -23.9359005369       -2.9057825002      -30.8991116777  TIP3      3591            0.0000000000
     28122      3727  TIP3      H1            -23.7104535792       -3.1502453140      -31.8041163087  TIP3      3591            0.0000000000
     28123      3727  TIP3      H2            -23.0419953885       -2.7934404173      -30.5160277520  TIP3      3591            0.0000000000
     28124      3728  TIP3      OH2           -15.2350028526      -11.4457545038      -30.9605804639  TIP3      3592            0.0000000000
     28125      3728  TIP3      H1            -15.3545751659      -10.8753148676      -30.1700019390  TIP3      3592            0.0000000000
     28126      3728  TIP3      H2            -14.3200768771      -11.1967166412      -31.1920308112  TIP3      3592            0.0000000000
     28127      3729  TIP3      OH2           -20.2952138159       -8.3774190509      -30.9515559202  TIP3      3593            0.0000000000
     28128      3729  TIP3      H1            -20.1709974279       -9.3183929430      -30.7393378962  TIP3      3593            0.0000000000
     28129      3729  TIP3      H2            -20.8626091404       -8.4348554959      -31.7497523838  TIP3      3593            0.0000000000
     28130      3730  TIP3      OH2           -27.9584346937      -10.1174575469      -34.3523396462  TIP3      3594            0.0000000000
     28131      3730  TIP3      H1            -27.2918207491       -9.5326894148      -34.7665484743  TIP3      3594            0.0000000000
     28132      3730  TIP3      H2            -27.8111983267      -10.9192623575      -34.9087262958  TIP3      3594            0.0000000000
     28133      3731  TIP3      OH2           -19.8986559117      -10.0424690266      -34.9222614781  TIP3      3595            0.0000000000
     28134      3731  TIP3      H1            -19.2948598399      -10.7035126638      -34.5309875629  TIP3      3595            0.0000000000
     28135      3731  TIP3      H2            -19.2900750220       -9.5664517122      -35.5039413784  TIP3      3595            0.0000000000
     28136      3732  TIP3      OH2           -31.0746893284       -7.9839227086      -33.5715247529  TIP3      3596            0.0000000000
     28137      3732  TIP3      H1            -30.4129305656       -8.5016659098      -33.0783903118  TIP3      3596            0.0000000000
     28138      3732  TIP3      H2            -30.8244779847       -8.2641062654      -34.4786946559  TIP3      3596            0.0000000000
     28139      3733  TIP3      OH2           -25.8499842654       -6.1189129082      -33.9912247142  TIP3      3597            0.0000000000
     28140      3733  TIP3      H1            -25.0794714468       -6.6356849782      -33.6671409892  TIP3      3597            0.0000000000
     28141      3733  TIP3      H2            -26.2079413794       -6.8042155404      -34.6088870558  TIP3      3597            0.0000000000
     28142      3734  TIP3      OH2           -15.0498252856      -10.0964085041      -28.5991257326  TIP3      3598            0.0000000000
     28143      3734  TIP3      H1            -15.3090892766       -9.2466243798      -29.0257563375  TIP3      3598            0.0000000000
     28144      3734  TIP3      H2            -14.9126744126       -9.8059520475      -27.6808385779  TIP3      3598            0.0000000000
     28145      3735  TIP3      OH2           -28.7737700608      -11.4871430562      -30.0305938344  TIP3      3599            0.0000000000
     28146      3735  TIP3      H1            -28.9734564567      -10.9560123055      -30.8163159487  TIP3      3599            0.0000000000
     28147      3735  TIP3      H2            -29.4672615423      -11.1659306665      -29.4153986569  TIP3      3599            0.0000000000
     28148      3736  TIP3      OH2           -21.5751058305       -2.0527951795      -36.4435383984  TIP3      3600            0.0000000000
     28149      3736  TIP3      H1            -21.8183024806       -1.9985155184      -37.3801729080  TIP3      3600            0.0000000000
     28150      3736  TIP3      H2            -20.9987990840       -1.2674404852      -36.3412964951  TIP3      3600            0.0000000000
     28151      3737  TIP3      OH2           -26.3665999780       -3.8902006094      -30.2986552750  TIP3      3601            0.0000000000
     28152      3737  TIP3      H1            -26.9257331807       -3.2158161250      -29.8541334381  TIP3      3601            0.0000000000
     28153      3737  TIP3      H2            -25.5800249728       -3.3398594330      -30.5222077594  TIP3      3601            0.0000000000
     28154      3738  TIP3      OH2           -17.5418385113      -11.1300082921      -34.0100156815  TIP3      3602            0.0000000000
     28155      3738  TIP3      H1            -17.7973247603      -11.2849781849      -33.0828521395  TIP3      3602            0.0000000000
     28156      3738  TIP3      H2            -16.6439035073      -10.7813845999      -33.8762232680  TIP3      3602            0.0000000000
     28157      3739  TIP3      OH2           -29.1013786193       -9.2979582201      -32.0810159255  TIP3      3603            0.0000000000
     28158      3739  TIP3      H1            -28.4755503764       -8.7605181096      -31.5445436254  TIP3      3603            0.0000000000
     28159      3739  TIP3      H2            -28.5486601633       -9.5097020846      -32.8785889004  TIP3      3603            0.0000000000
     28160      3740  TIP3      OH2           -27.4767081358       -1.5536307359      -29.3148559825  TIP3      3604            0.0000000000
     28161      3740  TIP3      H1            -27.5851420013       -0.7004042382      -29.7507992114  TIP3      3604            0.0000000000
     28162      3740  TIP3      H2            -28.3298552054       -1.6341482695      -28.8374404105  TIP3      3604            0.0000000000
     28163      3741  TIP3      OH2           -31.4864075467       -2.3298337003      -37.9710353429  TIP3      3605            0.0000000000
     28164      3741  TIP3      H1            -32.2793248000       -2.4168138049      -38.5521176085  TIP3      3605            0.0000000000
     28165      3741  TIP3      H2            -31.8529711175       -1.7396256770      -37.3036654517  TIP3      3605            0.0000000000
     28166      3742  TIP3      OH2           -18.0369164535       -0.4304913109      -31.6225640347  TIP3      3606            0.0000000000
     28167      3742  TIP3      H1            -18.9332449681       -0.2345521238      -31.2598180802  TIP3      3606            0.0000000000
     28168      3742  TIP3      H2            -17.9035272192        0.3878608309      -32.1315700393  TIP3      3606            0.0000000000
     28169      3743  TIP3      OH2           -17.5973817058      -12.7471405699      -30.0870967739  TIP3      3607            0.0000000000
     28170      3743  TIP3      H1            -18.2803196782      -12.4240590841      -30.7188218471  TIP3      3607            0.0000000000
     28171      3743  TIP3      H2            -16.7848192022      -12.4394880612      -30.5462858835  TIP3      3607            0.0000000000
     28172      3744  TIP3      OH2           -24.9239770036      -13.7198764373      -32.5339688746  TIP3      3608            0.0000000000
     28173      3744  TIP3      H1            -25.2626305082      -14.5974831090      -32.7725569273  TIP3      3608            0.0000000000
     28174      3744  TIP3      H2            -25.7657071689      -13.2369429311      -32.3218166541  TIP3      3608            0.0000000000
     28175      3745  TIP3      OH2           -19.2708299305        1.3598253906      -34.8451329921  TIP3      3609            0.0000000000
     28176      3745  TIP3      H1            -19.1644798388        0.5894177875      -35.4426363397  TIP3      3609            0.0000000000
     28177      3745  TIP3      H2            -18.4665750104        1.9162653994      -35.0059861341  TIP3      3609            0.0000000000
     28178      3746  TIP3      OH2           -19.0054465503       -0.8229993802      -36.3139761301  TIP3      3610            0.0000000000
     28179      3746  TIP3      H1            -18.6852247853       -1.4725668778      -36.9689146901  TIP3      3610            0.0000000000
     28180      3746  TIP3      H2            -18.7012204261       -1.2377686260      -35.4873813771  TIP3      3610            0.0000000000
     28181      3747  TIP3      OH2           -16.8571434571       -1.9598952009      -27.7352173526  TIP3      3611            0.0000000000
     28182      3747  TIP3      H1            -16.8991062871       -2.6629306925      -28.4324577397  TIP3      3611            0.0000000000
     28183      3747  TIP3      H2            -16.8035366864       -1.1735381803      -28.3219045267  TIP3      3611            0.0000000000
     28184      3748  TIP3      OH2           -22.4443370362       -5.3912024308      -38.1306061250  TIP3      3612            0.0000000000
     28185      3748  TIP3      H1            -22.9697668663       -4.5811639369      -37.9457600787  TIP3      3612            0.0000000000
     28186      3748  TIP3      H2            -21.5800185629       -5.0179783911      -38.4124832434  TIP3      3612            0.0000000000
     28187      3749  TIP3      OH2           -22.4270684329       -5.9739783447      -40.9050400177  TIP3      3613            0.0000000000
     28188      3749  TIP3      H1            -22.1877506215       -5.7176194884      -39.9961106761  TIP3      3613            0.0000000000
     28189      3749  TIP3      H2            -22.1601336819       -6.9031050509      -40.9284731395  TIP3      3613            0.0000000000
     28190      3750  TIP3      OH2           -15.3955572253       -5.5378448295      -29.9253712564  TIP3      3614            0.0000000000
     28191      3750  TIP3      H1            -16.1639430807       -4.9186169625      -29.8755157019  TIP3      3614            0.0000000000
     28192      3750  TIP3      H2            -14.8377402026       -5.0645547251      -30.5716063385  TIP3      3614            0.0000000000
     28193      3751  TIP3      OH2           -18.2557674768       -4.9168671670      -36.6073587255  TIP3      3615            0.0000000000
     28194      3751  TIP3      H1            -19.0190757547       -4.6516788416      -36.0298715796  TIP3      3615            0.0000000000
     28195      3751  TIP3      H2            -17.7546567751       -5.4369223899      -35.9630601585  TIP3      3615            0.0000000000
     28196      3752  TIP3      OH2           -18.8227613796       -7.0259119452      -27.6018133844  TIP3      3616            0.0000000000
     28197      3752  TIP3      H1            -18.6231217416       -6.2764395245      -27.0069845980  TIP3      3616            0.0000000000
     28198      3752  TIP3      H2            -19.3432964425       -6.5799836921      -28.2927309265  TIP3      3616            0.0000000000
     28199      3753  TIP3      OH2           -27.4017075723       -4.2951744094      -34.9242826375  TIP3      3617            0.0000000000
     28200      3753  TIP3      H1            -27.6629595031       -4.7854165554      -35.7350598282  TIP3      3617            0.0000000000
     28201      3753  TIP3      H2            -26.7396654695       -4.9305564810      -34.5569292676  TIP3      3617            0.0000000000
     28202      3754  TIP3      OH2           -26.0987651809       -1.1029416841      -32.6189440748  TIP3      3618            0.0000000000
     28203      3754  TIP3      H1            -26.0540556526       -0.8920990231      -33.5773134973  TIP3      3618            0.0000000000
     28204      3754  TIP3      H2            -25.2237975879       -1.4598818618      -32.4012606775  TIP3      3618            0.0000000000
     28205      3755  TIP3      OH2           -26.8934655041       -6.0964595350      -31.6223106574  TIP3      3619            0.0000000000
     28206      3755  TIP3      H1            -26.5215967009       -5.9178303920      -32.5162547276  TIP3      3619            0.0000000000
     28207      3755  TIP3      H2            -26.7073288128       -5.2703028103      -31.1228245981  TIP3      3619            0.0000000000
     28208      3756  TIP3      OH2           -20.5151341581        0.0474128757      -30.7478816511  TIP3      3620            0.0000000000
     28209      3756  TIP3      H1            -20.8098186702        0.6191621428      -30.0198684782  TIP3      3620            0.0000000000
     28210      3756  TIP3      H2            -20.7043343469       -0.8601080246      -30.4054354190  TIP3      3620            0.0000000000
     28211      3757  TIP3      OH2           -26.0660369264       -1.6520201967      -27.0374578666  TIP3      3621            0.0000000000
     28212      3757  TIP3      H1            -26.6923944889       -1.0132875474      -26.6350641490  TIP3      3621            0.0000000000
     28213      3757  TIP3      H2            -26.4686352541       -1.7635316352      -27.9327030322  TIP3      3621            0.0000000000
     28214      3758  TIP3      OH2           -19.8446096705       -5.3644617658      -38.6746339947  TIP3      3622            0.0000000000
     28215      3758  TIP3      H1            -19.2148483247       -5.1496265728      -37.9471872323  TIP3      3622            0.0000000000
     28216      3758  TIP3      H2            -19.3700850905       -5.0281308580      -39.4705591196  TIP3      3622            0.0000000000
     28217      3759  TIP3      OH2           -28.8481150000       -4.8591038253      -28.0523459805  TIP3      3623            0.0000000000
     28218      3759  TIP3      H1            -28.6452614315       -4.4511360766      -27.2002628818  TIP3      3623            0.0000000000
     28219      3759  TIP3      H2            -29.7307748720       -5.2587592670      -27.8783248716  TIP3      3623            0.0000000000
     28220      3760  TIP3      OH2           -22.8002773534        1.2124957453      -36.6700747241  TIP3      3624            0.0000000000
     28221      3760  TIP3      H1            -22.6571138544        1.2910450248      -35.7136839083  TIP3      3624            0.0000000000
     28222      3760  TIP3      H2            -22.9630810080        2.1448556654      -36.9325050380  TIP3      3624            0.0000000000
     28223      3761  TIP3      OH2           -27.4653682550        0.4958663522      -25.8211268268  TIP3      3625            0.0000000000
     28224      3761  TIP3      H1            -27.3922746098        1.0875204610      -26.6018787897  TIP3      3625            0.0000000000
     28225      3761  TIP3      H2            -28.4364289528        0.4215516537      -25.7461182934  TIP3      3625            0.0000000000
     28226      3762  TIP3      OH2           -16.1132126812      -14.2337716051      -38.9420792109  TIP3      3626            0.0000000000
     28227      3762  TIP3      H1            -17.0987906585      -14.1716189787      -38.9085544901  TIP3      3626            0.0000000000
     28228      3762  TIP3      H2            -15.8970402387      -13.4453790292      -39.4805452742  TIP3      3626            0.0000000000
     28229      3763  TIP3      OH2           -28.8173116537       -5.1608956106      -37.0739248524  TIP3      3627            0.0000000000
     28230      3763  TIP3      H1            -28.9817783102       -4.5560183059      -37.8274445917  TIP3      3627            0.0000000000
     28231      3763  TIP3      H2            -28.9904643779       -6.0189880283      -37.4853139478  TIP3      3627            0.0000000000
     28232      3764  TIP3      OH2           -15.1496528384        0.3830018435      -40.7499372779  TIP3      3628            0.0000000000
     28233      3764  TIP3      H1            -14.9076881088        1.3372626245      -40.6850277714  TIP3      3628            0.0000000000
     28234      3764  TIP3      H2            -14.2975971045        0.0053653732      -40.9923006566  TIP3      3628            0.0000000000
     28235      3765  TIP3      OH2           -31.8231638748       -3.0601342116      -27.9686862268  TIP3      3629            0.0000000000
     28236      3765  TIP3      H1            -32.3504455438       -3.1272345208      -28.7814613025  TIP3      3629            0.0000000000
     28237      3765  TIP3      H2            -31.6148090314       -4.0061485839      -27.8246094610  TIP3      3629            0.0000000000
     28238      3766  TIP3      OH2           -32.4196496860        0.7068152774      -31.7704790310  TIP3      3630            0.0000000000
     28239      3766  TIP3      H1            -31.7777844654        0.7680498784      -31.0269495314  TIP3      3630            0.0000000000
     28240      3766  TIP3      H2            -33.2592165102        0.7413503510      -31.2950229830  TIP3      3630            0.0000000000
     28241      3767  TIP3      OH2           -14.2714177155        0.2413562440      -26.0695393683  TIP3      3631            0.0000000000
     28242      3767  TIP3      H1            -14.3481737396       -0.7181482051      -26.2161097105  TIP3      3631            0.0000000000
     28243      3767  TIP3      H2            -15.1984388815        0.4397051645      -25.7984750252  TIP3      3631            0.0000000000
     28244      3768  TIP3      OH2           -23.9233854979        0.1311285617      -27.1978287583  TIP3      3632            0.0000000000
     28245      3768  TIP3      H1            -23.8615542748        1.0322211720      -26.8118766963  TIP3      3632            0.0000000000
     28246      3768  TIP3      H2            -24.8226146612       -0.1534152485      -26.9531519824  TIP3      3632            0.0000000000
     28247      3769  TIP3      OH2           -22.8203690944        3.6408679637      -37.8670359716  TIP3      3633            0.0000000000
     28248      3769  TIP3      H1            -22.9277616339        3.8050140135      -38.8290211048  TIP3      3633            0.0000000000
     28249      3769  TIP3      H2            -22.7905764750        4.5390821782      -37.4713726947  TIP3      3633            0.0000000000
     28250      3770  TIP3      OH2           -28.6988553389        2.4847285415      -35.7231577415  TIP3      3634            0.0000000000
     28251      3770  TIP3      H1            -28.5459089508        2.3572343413      -34.7512913295  TIP3      3634            0.0000000000
     28252      3770  TIP3      H2            -29.3605566138        1.7812771547      -35.8711735478  TIP3      3634            0.0000000000
     28253      3771  TIP3      OH2           -20.0203203998        2.9766316180      -41.0316322174  TIP3      3635            0.0000000000
     28254      3771  TIP3      H1            -19.3817736518        2.2677200626      -41.2547685419  TIP3      3635            0.0000000000
     28255      3771  TIP3      H2            -19.6725704892        3.2458092451      -40.1619265155  TIP3      3635            0.0000000000
     28256      3772  TIP3      OH2           -20.2279224375        3.0071803912      -37.9518923048  TIP3      3636            0.0000000000
     28257      3772  TIP3      H1            -21.1927715360        3.0700976854      -37.7836689314  TIP3      3636            0.0000000000
     28258      3772  TIP3      H2            -19.9607548275        2.2720614163      -37.3859512432  TIP3      3636            0.0000000000
     28259      3773  TIP3      OH2           -17.6413624327       -8.6589518842      -25.5787958712  TIP3      3637            0.0000000000
     28260      3773  TIP3      H1            -18.0930077828       -8.2473308788      -26.3389950614  TIP3      3637            0.0000000000
     28261      3773  TIP3      H2            -17.6074551352       -9.6096901991      -25.8548395642  TIP3      3637            0.0000000000
     28262      3774  TIP3      OH2           -29.5440218350       -1.4764429157      -27.5209910113  TIP3      3638            0.0000000000
     28263      3774  TIP3      H1            -29.2186636323       -1.8950412653      -26.6884002204  TIP3      3638            0.0000000000
     28264      3774  TIP3      H2            -30.3609837322       -2.0073041418      -27.6747853503  TIP3      3638            0.0000000000
     28265      3775  TIP3      OH2           -27.2570541645      -12.6802153141      -31.9726126392  TIP3      3639            0.0000000000
     28266      3775  TIP3      H1            -28.1710083114      -12.8254403535      -32.2951916657  TIP3      3639            0.0000000000
     28267      3775  TIP3      H2            -27.4343670578      -12.5434620673      -31.0182096189  TIP3      3639            0.0000000000
     28268      3776  TIP3      OH2           -22.5556193443      -13.3844400948      -28.5151913317  TIP3      3640            0.0000000000
     28269      3776  TIP3      H1            -22.2007085117      -13.8538855728      -27.7292056929  TIP3      3640            0.0000000000
     28270      3776  TIP3      H2            -23.5325088816      -13.4331067295      -28.3925083005  TIP3      3640            0.0000000000
     28271      3777  TIP3      OH2           -19.9930835809       -9.6353544043      -27.6124688188  TIP3      3641            0.0000000000
     28272      3777  TIP3      H1            -20.6011157528       -9.7536537777      -26.8376974942  TIP3      3641            0.0000000000
     28273      3777  TIP3      H2            -19.9349749912       -8.6616182588      -27.6667728050  TIP3      3641            0.0000000000
     28274      3778  TIP3      OH2           -18.5774087972       -4.5277629457      -41.0146792033  TIP3      3642            0.0000000000
     28275      3778  TIP3      H1            -18.7696654244       -4.4024093661      -41.9548056263  TIP3      3642            0.0000000000
     28276      3778  TIP3      H2            -17.7318999260       -4.0502561546      -40.9226581826  TIP3      3642            0.0000000000
     28277      3779  TIP3      OH2           -22.7941060348      -10.6214726265      -40.9712580753  TIP3      3643            0.0000000000
     28278      3779  TIP3      H1            -23.3391365795      -10.7338739869      -40.1678011379  TIP3      3643            0.0000000000
     28279      3779  TIP3      H2            -22.9788735021      -11.4566138280      -41.4174363024  TIP3      3643            0.0000000000
     28280      3780  TIP3      OH2           -27.1861950663       -8.3686495649      -30.4422391211  TIP3      3644            0.0000000000
     28281      3780  TIP3      H1            -27.5965178348       -8.0962924401      -29.5930516879  TIP3      3644            0.0000000000
     28282      3780  TIP3      H2            -27.2128646248       -7.4951969370      -30.9185296025  TIP3      3644            0.0000000000
     28283      3781  TIP3      OH2           -27.0783659306       -7.8270753005      -35.6668454786  TIP3      3645            0.0000000000
     28284      3781  TIP3      H1            -28.0447020834       -7.7321040077      -35.6971128861  TIP3      3645            0.0000000000
     28285      3781  TIP3      H2            -26.8993470473       -8.0402463008      -36.5994781337  TIP3      3645            0.0000000000
     28286      3782  TIP3      OH2           -21.5219019738       -7.4079994807      -36.6520338746  TIP3      3646            0.0000000000
     28287      3782  TIP3      H1            -21.8864105249       -6.6563875645      -37.1802188944  TIP3      3646            0.0000000000
     28288      3782  TIP3      H2            -20.8361595248       -7.7241036015      -37.2592193609  TIP3      3646            0.0000000000
     28289      3783  TIP3      OH2           -23.2941373687       -6.9202939147      -25.9155950828  TIP3      3647            0.0000000000
     28290      3783  TIP3      H1            -23.4871025853       -7.7474666123      -25.4183501759  TIP3      3647            0.0000000000
     28291      3783  TIP3      H2            -22.5732089077       -6.5845564813      -25.3659911835  TIP3      3647            0.0000000000
     28292      3784  TIP3      OH2           -21.3740513874       -8.0093160485      -33.5080775599  TIP3      3648            0.0000000000
     28293      3784  TIP3      H1            -20.9941444557       -7.2602151954      -33.9978257970  TIP3      3648            0.0000000000
     28294      3784  TIP3      H2            -21.0410019267       -8.7380299843      -34.0725542983  TIP3      3648            0.0000000000
     28295      3785  TIP3      OH2           -29.9621789341       -8.0574181762      -29.3117348752  TIP3      3649            0.0000000000
     28296      3785  TIP3      H1            -29.9523756258       -7.7743857815      -28.3882588139  TIP3      3649            0.0000000000
     28297      3785  TIP3      H2            -30.2042077606       -8.9992881067      -29.2007967425  TIP3      3649            0.0000000000
     28298      3786  TIP3      OH2           -25.9012764009      -10.4583613665      -41.9823452130  TIP3      3650            0.0000000000
     28299      3786  TIP3      H1            -26.1927745667      -10.9586179547      -41.2051445412  TIP3      3650            0.0000000000
     28300      3786  TIP3      H2            -26.3072819770       -9.5921416621      -41.8174909907  TIP3      3650            0.0000000000
     28301      3787  TIP3      OH2           -31.9915182992      -11.2849665076      -35.3401953591  TIP3      3651            0.0000000000
     28302      3787  TIP3      H1            -31.6479644651      -11.5553441284      -34.4720357790  TIP3      3651            0.0000000000
     28303      3787  TIP3      H2            -32.9154204015      -11.0389801206      -35.0774430434  TIP3      3651            0.0000000000
     28304      3788  TIP3      OH2           -31.0526076794      -10.1723391954      -39.5015730238  TIP3      3652            0.0000000000
     28305      3788  TIP3      H1            -30.7187570807      -10.4911915402      -40.3613454619  TIP3      3652            0.0000000000
     28306      3788  TIP3      H2            -31.8720677710       -9.7039847387      -39.7167954021  TIP3      3652            0.0000000000
     28307      3789  TIP3      OH2           -21.2778454753       -6.1074255812      -29.4998385984  TIP3      3653            0.0000000000
     28308      3789  TIP3      H1            -20.7591064572       -6.8540687776      -29.8649061892  TIP3      3653            0.0000000000
     28309      3789  TIP3      H2            -21.8371828532       -6.5814519828      -28.8508883190  TIP3      3653            0.0000000000
     28310      3790  TIP3      OH2           -24.2914043572      -10.8065122049      -34.7114672534  TIP3      3654            0.0000000000
     28311      3790  TIP3      H1            -25.0591415715      -10.6757973525      -34.1362210583  TIP3      3654            0.0000000000
     28312      3790  TIP3      H2            -23.6349731516      -11.2030822327      -34.0942656512  TIP3      3654            0.0000000000
     28313      3791  TIP3      OH2           -29.7518081327       -8.5824203661      -35.8214259962  TIP3      3655            0.0000000000
     28314      3791  TIP3      H1            -29.7609954152       -8.8503437216      -36.7496186514  TIP3      3655            0.0000000000
     28315      3791  TIP3      H2            -29.2562451324       -9.3131664589      -35.3900971580  TIP3      3655            0.0000000000
     28316      3792  TIP3      OH2           -27.1445671936       -9.1196340528      -38.1309936188  TIP3      3656            0.0000000000
     28317      3792  TIP3      H1            -26.1882617946       -9.0810970954      -37.9509244743  TIP3      3656            0.0000000000
     28318      3792  TIP3      H2            -27.2020167273       -8.5915925396      -38.9630781893  TIP3      3656            0.0000000000
     28319      3793  TIP3      OH2           -19.6615054293      -11.5455502143      -31.4585039834  TIP3      3657            0.0000000000
     28320      3793  TIP3      H1            -20.4062494333      -11.4614899926      -30.8339090293  TIP3      3657            0.0000000000
     28321      3793  TIP3      H2            -20.1024061543      -11.9126513678      -32.2440681298  TIP3      3657            0.0000000000
     28322      3794  TIP3      OH2           -27.2136432350       -7.9276523294      -40.4632657538  TIP3      3658            0.0000000000
     28323      3794  TIP3      H1            -27.9490757077       -8.0112929243      -41.0995433293  TIP3      3658            0.0000000000
     28324      3794  TIP3      H2            -26.5001012086       -7.4723583128      -40.9660152830  TIP3      3658            0.0000000000
     28325      3795  TIP3      OH2           -17.4914485488        4.2265264780      -24.7978456303  TIP3      3659            0.0000000000
     28326      3795  TIP3      H1            -17.0689189975        4.5980495867      -25.5944828556  TIP3      3659            0.0000000000
     28327      3795  TIP3      H2            -16.8038867577        4.3413183993      -24.1333080494  TIP3      3659            0.0000000000
     28328      3796  TIP3      OH2           -29.4496182762       -2.9477284542      -25.2384433010  TIP3      3660            0.0000000000
     28329      3796  TIP3      H1            -28.7535376375       -3.0234018875      -24.5440518889  TIP3      3660            0.0000000000
     28330      3796  TIP3      H2            -30.2317680738       -3.2252972810      -24.7192610190  TIP3      3660            0.0000000000
     28331      3797  TIP3      OH2           -24.0048281310       -7.7892791454      -33.1951775091  TIP3      3661            0.0000000000
     28332      3797  TIP3      H1            -23.0546110715       -7.9507339423      -33.4106265150  TIP3      3661            0.0000000000
     28333      3797  TIP3      H2            -24.1382408598       -8.3852603909      -32.4465085962  TIP3      3661            0.0000000000
     28334      3798  TIP3      OH2           -27.8027486461      -12.0407431689      -36.1345216999  TIP3      3662            0.0000000000
     28335      3798  TIP3      H1            -28.4790309890      -12.6962279318      -35.8425817026  TIP3      3662            0.0000000000
     28336      3798  TIP3      H2            -27.6432078295      -12.3357498590      -37.0418417002  TIP3      3662            0.0000000000
     28337      3799  TIP3      OH2           -25.0233298260       -9.7989802191      -30.3914686103  TIP3      3663            0.0000000000
     28338      3799  TIP3      H1            -25.8045337457       -9.2081482982      -30.4548876240  TIP3      3663            0.0000000000
     28339      3799  TIP3      H2            -24.3563741006       -9.1977207131      -30.0431240799  TIP3      3663            0.0000000000
     28340      3800  TIP3      OH2           -24.1622899757       -3.2618491297      -38.2459596133  TIP3      3664            0.0000000000
     28341      3800  TIP3      H1            -24.8305003560       -3.8640652611      -38.6446961767  TIP3      3664            0.0000000000
     28342      3800  TIP3      H2            -24.6250645303       -3.0166426095      -37.4127346712  TIP3      3664            0.0000000000
     28343      3801  TIP3      OH2           -17.0678230133       -3.4291248929      -29.9051956571  TIP3      3665            0.0000000000
     28344      3801  TIP3      H1            -16.7057644286       -3.0189554507      -30.7241688104  TIP3      3665            0.0000000000
     28345      3801  TIP3      H2            -17.9511316674       -3.7072446108      -30.2126419654  TIP3      3665            0.0000000000
     28346      3802  TIP3      OH2           -20.3922068460      -10.3024888901      -39.6103607960  TIP3      3666            0.0000000000
     28347      3802  TIP3      H1            -21.1557192755      -10.2943248494      -40.2234821220  TIP3      3666            0.0000000000
     28348      3802  TIP3      H2            -20.1174949976       -9.3554279604      -39.5878554714  TIP3      3666            0.0000000000
     28349      3803  TIP3      OH2           -23.0168608395       -2.7367947551      -27.6955091737  TIP3      3667            0.0000000000
     28350      3803  TIP3      H1            -23.3859569270       -3.3434789376      -27.0442613651  TIP3      3667            0.0000000000
     28351      3803  TIP3      H2            -23.2370132605       -1.8798117014      -27.3010771169  TIP3      3667            0.0000000000
     28352      3804  TIP3      OH2           -19.5141510072       -7.9813010769      -38.8576950579  TIP3      3668            0.0000000000
     28353      3804  TIP3      H1            -18.8865326433       -8.4276537235      -38.2494138889  TIP3      3668            0.0000000000
     28354      3804  TIP3      H2            -19.3518234714       -7.0463250121      -38.6393049662  TIP3      3668            0.0000000000
     28355      3805  TIP3      OH2           -28.6600780652       -3.7727783336      -32.4347968059  TIP3      3669            0.0000000000
     28356      3805  TIP3      H1            -27.8236112771       -4.0788289499      -32.8241744019  TIP3      3669            0.0000000000
     28357      3805  TIP3      H2            -28.8327152687       -4.5314904026      -31.8261412717  TIP3      3669            0.0000000000
     28358      3806  TIP3      OH2           -22.3396299894       -1.8023586950      -39.4703439643  TIP3      3670            0.0000000000
     28359      3806  TIP3      H1            -22.9461680603       -1.0448049791      -39.4611747897  TIP3      3670            0.0000000000
     28360      3806  TIP3      H2            -22.9150406867       -2.4918957341      -39.0604414018  TIP3      3670            0.0000000000
     28361      3807  TIP3      OH2           -31.4244192634       -5.7541957035      -27.6642677096  TIP3      3671            0.0000000000
     28362      3807  TIP3      H1            -31.7122098791       -5.9105936790      -26.7404409541  TIP3      3671            0.0000000000
     28363      3807  TIP3      H2            -32.3137835240       -5.8420546188      -28.0840209997  TIP3      3671            0.0000000000
     28364      3808  TIP3      OH2           -25.6805313665       -5.7818210426      -25.9304066854  TIP3      3672            0.0000000000
     28365      3808  TIP3      H1            -25.7981755428       -5.9107691826      -26.8854439371  TIP3      3672            0.0000000000
     28366      3808  TIP3      H2            -24.7726646633       -6.1494832379      -25.8331505418  TIP3      3672            0.0000000000
     28367      3809  TIP3      OH2           -20.1425214855       -0.6933348523      -27.1772083857  TIP3      3673            0.0000000000
     28368      3809  TIP3      H1            -20.9050042946       -0.7764842883      -27.7628172489  TIP3      3673            0.0000000000
     28369      3809  TIP3      H2            -20.5135094318       -0.1215592080      -26.4850173089  TIP3      3673            0.0000000000
     28370      3810  TIP3      OH2           -14.7136842175       -8.5171882908      -38.8892970055  TIP3      3674            0.0000000000
     28371      3810  TIP3      H1            -15.3144376475       -8.4918218047      -39.6657944675  TIP3      3674            0.0000000000
     28372      3810  TIP3      H2            -14.2412691894       -7.6845212560      -39.0408407133  TIP3      3674            0.0000000000
     28373      3811  TIP3      OH2           -14.4537168658       -2.4897894808      -26.5426094783  TIP3      3675            0.0000000000
     28374      3811  TIP3      H1            -15.3407126572       -2.3202590439      -26.9438926005  TIP3      3675            0.0000000000
     28375      3811  TIP3      H2            -13.9151941058       -2.5740070307      -27.3646490995  TIP3      3675            0.0000000000
     28376      3812  TIP3      OH2           -16.9454705499        0.6259083616      -38.4990715344  TIP3      3676            0.0000000000
     28377      3812  TIP3      H1            -17.6549654573       -0.0277975489      -38.5498291951  TIP3      3676            0.0000000000
     28378      3812  TIP3      H2            -16.3592086106        0.3752167012      -39.2417685048  TIP3      3676            0.0000000000
     28379      3813  TIP3      OH2           -19.1135258870       -4.6789436310      -31.6431164492  TIP3      3677            0.0000000000
     28380      3813  TIP3      H1            -20.0568868041       -4.8422405026      -31.7988063432  TIP3      3677            0.0000000000
     28381      3813  TIP3      H2            -18.7395758307       -5.4372843653      -32.1220923517  TIP3      3677            0.0000000000
     28382      3814  TIP3      OH2           -26.6268983768       -0.2265204645      -35.2966944572  TIP3      3678            0.0000000000
     28383      3814  TIP3      H1            -26.2982066141        0.5966789889      -35.7221243229  TIP3      3678            0.0000000000
     28384      3814  TIP3      H2            -27.5610808900       -0.1861072599      -35.5537143002  TIP3      3678            0.0000000000
     28385      3815  TIP3      OH2           -31.3867905730       -5.5873919445      -40.4854462955  TIP3      3679            0.0000000000
     28386      3815  TIP3      H1            -30.4341291460       -5.4203028815      -40.5665725112  TIP3      3679            0.0000000000
     28387      3815  TIP3      H2            -31.6492362308       -4.7023930163      -40.2087914845  TIP3      3679            0.0000000000
     28388      3816  TIP3      OH2           -25.6615101944       -2.6434368776      -36.1254003895  TIP3      3680            0.0000000000
     28389      3816  TIP3      H1            -25.7964363696       -1.7148059296      -35.8253630691  TIP3      3680            0.0000000000
     28390      3816  TIP3      H2            -26.2854423284       -3.1375278802      -35.5530941890  TIP3      3680            0.0000000000
     28391      3817  TIP3      OH2           -24.7773263189        1.7042131487      -29.2067311591  TIP3      3681            0.0000000000
     28392      3817  TIP3      H1            -24.0036060712        2.2297424342      -29.4797380031  TIP3      3681            0.0000000000
     28393      3817  TIP3      H2            -24.3552122790        1.0643412418      -28.5889527479  TIP3      3681            0.0000000000
     28394      3818  TIP3      OH2           -26.3097713007        2.1818418470      -36.9192673751  TIP3      3682            0.0000000000
     28395      3818  TIP3      H1            -27.2198102689        2.3276178278      -36.5732721890  TIP3      3682            0.0000000000
     28396      3818  TIP3      H2            -25.8443873180        2.8617105423      -36.3762079063  TIP3      3682            0.0000000000
     28397      3819  TIP3      OH2           -21.2891163799       -2.4912454758      -29.8462402215  TIP3      3683            0.0000000000
     28398      3819  TIP3      H1            -21.8269642979       -2.7941527424      -29.0711039342  TIP3      3683            0.0000000000
     28399      3819  TIP3      H2            -20.7126983492       -3.2588604246      -30.0040200114  TIP3      3683            0.0000000000
     28400      3820  TIP3      OH2           -18.9794325802       -1.0985579419      -40.3126637970  TIP3      3684            0.0000000000
     28401      3820  TIP3      H1            -18.9684045840       -1.6680328430      -39.5113334077  TIP3      3684            0.0000000000
     28402      3820  TIP3      H2            -19.7595222219       -1.4515191120      -40.7573484602  TIP3      3684            0.0000000000
     28403      3821  TIP3      OH2           -18.3951755379        1.9657139738      -27.3218695657  TIP3      3685            0.0000000000
     28404      3821  TIP3      H1            -19.2858324741        1.5849201070      -27.4573811336  TIP3      3685            0.0000000000
     28405      3821  TIP3      H2            -18.3638019413        2.6868437489      -27.9946502229  TIP3      3685            0.0000000000
     28406      3822  TIP3      OH2           -14.4598198168        2.9802006823      -40.3523163757  TIP3      3686            0.0000000000
     28407      3822  TIP3      H1            -13.8674619005        3.5165186711      -40.9123183570  TIP3      3686            0.0000000000
     28408      3822  TIP3      H2            -14.9974203619        3.6587768606      -39.8857286309  TIP3      3686            0.0000000000
     28409      3823  TIP3      OH2           -30.5491095883      -10.5890948084      -28.1907879246  TIP3      3687            0.0000000000
     28410      3823  TIP3      H1            -31.0179424428       -9.9984683110      -27.5476182719  TIP3      3687            0.0000000000
     28411      3823  TIP3      H2            -30.9285201711      -11.4387776214      -27.9029958662  TIP3      3687            0.0000000000
     28412      3824  TIP3      OH2           -18.2319084995       -2.6463391560      -38.1938734101  TIP3      3688            0.0000000000
     28413      3824  TIP3      H1            -18.3155551374       -3.4892976269      -37.6984443069  TIP3      3688            0.0000000000
     28414      3824  TIP3      H2            -17.2731780732       -2.6748636501      -38.3823045200  TIP3      3688            0.0000000000
     28415      3825  TIP3      OH2           -30.7764438975        1.0303078950      -29.5280162611  TIP3      3689            0.0000000000
     28416      3825  TIP3      H1            -30.1929418161        0.2757181835      -29.3704905092  TIP3      3689            0.0000000000
     28417      3825  TIP3      H2            -30.3063540940        1.7286339031      -29.0433593928  TIP3      3689            0.0000000000
     28418      3826  TIP3      OH2           -25.7271883740       -1.1862128523      -39.4248466081  TIP3      3690            0.0000000000
     28419      3826  TIP3      H1            -25.4299905077       -2.0131562531      -39.0147616240  TIP3      3690            0.0000000000
     28420      3826  TIP3      H2            -26.2133492883       -0.7260956468      -38.7242334842  TIP3      3690            0.0000000000
     28421      3827  TIP3      OH2           -29.4701518352       -3.6960045216      -39.2922970410  TIP3      3691            0.0000000000
     28422      3827  TIP3      H1            -30.2390373981       -3.1901126609      -38.9463029361  TIP3      3691            0.0000000000
     28423      3827  TIP3      H2            -28.9265512988       -3.0138644724      -39.7234117282  TIP3      3691            0.0000000000
     28424      3828  TIP3      OH2           -21.7690139925      -10.7798080025      -29.2690632403  TIP3      3692            0.0000000000
     28425      3828  TIP3      H1            -21.1323410842      -10.4563572180      -28.5994906309  TIP3      3692            0.0000000000
     28426      3828  TIP3      H2            -22.0566680494      -11.6186521243      -28.8602909133  TIP3      3692            0.0000000000
     28427      3829  TIP3      OH2           -21.2033859831      -11.1954844624      -37.2507136532  TIP3      3693            0.0000000000
     28428      3829  TIP3      H1            -20.8347344842      -10.9248327707      -38.1248741535  TIP3      3693            0.0000000000
     28429      3829  TIP3      H2            -20.7714297515      -10.5744805352      -36.6470592921  TIP3      3693            0.0000000000
     28430      3830  TIP3      OH2           -22.8412326603        0.9913936797      -39.6288058779  TIP3      3694            0.0000000000
     28431      3830  TIP3      H1            -23.0680451787        1.1787465465      -38.6941712745  TIP3      3694            0.0000000000
     28432      3830  TIP3      H2            -21.8862340379        0.8608335213      -39.5750867606  TIP3      3694            0.0000000000
     28433      3831  TIP3      OH2           -24.2749866202       -9.0725222498      -36.7781264064  TIP3      3695            0.0000000000
     28434      3831  TIP3      H1            -23.4440285222       -8.5871705347      -36.6304701690  TIP3      3695            0.0000000000
     28435      3831  TIP3      H2            -24.2705595427       -9.7185879932      -36.0362416930  TIP3      3695            0.0000000000
     28436      3832  TIP3      OH2           -22.6326332057       -8.0994603987      -28.1915356072  TIP3      3696            0.0000000000
     28437      3832  TIP3      H1            -22.8793006145       -7.8647869791      -27.2672263866  TIP3      3696            0.0000000000
     28438      3832  TIP3      H2            -22.5056953522       -9.0590742800      -28.1666169351  TIP3      3696            0.0000000000
     28439      3833  TIP3      OH2           -23.4277041905      -12.6487261618      -36.5965195242  TIP3      3697            0.0000000000
     28440      3833  TIP3      H1            -23.9135166905      -12.0363120331      -36.0028050887  TIP3      3697            0.0000000000
     28441      3833  TIP3      H2            -22.5555746137      -12.1747941675      -36.6684060167  TIP3      3697            0.0000000000
     28442      3834  TIP3      OH2           -26.1442128695        1.9927786659      -39.6029615634  TIP3      3698            0.0000000000
     28443      3834  TIP3      H1            -25.1816869528        2.0295075742      -39.7117233255  TIP3      3698            0.0000000000
     28444      3834  TIP3      H2            -26.2282249866        2.1264308012      -38.6296783110  TIP3      3698            0.0000000000
     28445      3835  TIP3      OH2           -27.4876479912      -11.7010039813      -39.2827537353  TIP3      3699            0.0000000000
     28446      3835  TIP3      H1            -27.5704998464      -10.8602936184      -38.7957015207  TIP3      3699            0.0000000000
     28447      3835  TIP3      H2            -26.5233133583      -11.8238590320      -39.2208638975  TIP3      3699            0.0000000000
     28448      3836  TIP3      OH2           -17.3374176323      -10.7374117629      -27.1903046727  TIP3      3700            0.0000000000
     28449      3836  TIP3      H1            -18.2433455503      -10.7260499575      -27.5484441975  TIP3      3700            0.0000000000
     28450      3836  TIP3      H2            -16.7752701498      -10.6703514417      -27.9784358936  TIP3      3700            0.0000000000
     28451      3837  TIP3      OH2           -18.5257313913       -7.3697714555      -32.9716776454  TIP3      3701            0.0000000000
     28452      3837  TIP3      H1            -19.1114160283       -7.7624125634      -32.2982383992  TIP3      3701            0.0000000000
     28453      3837  TIP3      H2            -17.6486051031       -7.6660342380      -32.6319859359  TIP3      3701            0.0000000000
     28454      3838  TIP3      OH2           -28.9084740915       -0.3371617207      -40.6129718494  TIP3      3702            0.0000000000
     28455      3838  TIP3      H1            -29.3859086080       -0.0898359222      -39.8132886076  TIP3      3702            0.0000000000
     28456      3838  TIP3      H2            -29.5751415273       -0.9474305154      -40.9970340446  TIP3      3702            0.0000000000
     28457      3839  TIP3      OH2           -29.6740018363       -8.2736114374      -41.7638399552  TIP3      3703            0.0000000000
     28458      3839  TIP3      H1            -30.2953095052       -7.6877981957      -41.3014026406  TIP3      3703            0.0000000000
     28459      3839  TIP3      H2            -29.4871283404       -7.8403586534      -42.6055254608  TIP3      3703            0.0000000000
     28460      3840  TIP3      OH2           -17.4700819817        2.5050409275      -31.4935298233  TIP3      3704            0.0000000000
     28461      3840  TIP3      H1            -17.5719234506        3.2916743733      -32.0703160195  TIP3      3704            0.0000000000
     28462      3840  TIP3      H2            -16.4917697797        2.5401115176      -31.3935359547  TIP3      3704            0.0000000000
     28463      3841  TIP3      OH2           -29.7325489773      -13.4653193647      -32.7747662668  TIP3      3705            0.0000000000
     28464      3841  TIP3      H1            -29.7020778190      -13.6071906872      -33.7505599940  TIP3      3705            0.0000000000
     28465      3841  TIP3      H2            -30.0449009066      -14.3478463536      -32.4712911742  TIP3      3705            0.0000000000
     28466      3842  TIP3      OH2           -30.7097040195        0.5938714124      -36.0025691507  TIP3      3706            0.0000000000
     28467      3842  TIP3      H1            -31.3818044212        1.1846843122      -35.5970696283  TIP3      3706            0.0000000000
     28468      3842  TIP3      H2            -30.8688030852        0.7115204948      -36.9462660373  TIP3      3706            0.0000000000
     28469      3843  TIP3      OH2           -31.9865481839        2.7780315025      -25.9838089040  TIP3      3707            0.0000000000
     28470      3843  TIP3      H1            -31.1263572851        3.0102886660      -25.6213879497  TIP3      3707            0.0000000000
     28471      3843  TIP3      H2            -32.1714724300        1.9321518190      -25.5504324107  TIP3      3707            0.0000000000
     28472      3844  TIP3      OH2           -26.5732797693        2.0252332895      -23.5093628472  TIP3      3708            0.0000000000
     28473      3844  TIP3      H1            -25.6194766635        2.0267918421      -23.6887934531  TIP3      3708            0.0000000000
     28474      3844  TIP3      H2            -26.8787020676        1.3802997516      -24.1744336630  TIP3      3708            0.0000000000
     28475      3845  TIP3      OH2           -20.8366009183        0.7118857287      -24.7934933441  TIP3      3709            0.0000000000
     28476      3845  TIP3      H1            -21.0205995274       -0.1966610279      -24.4505601144  TIP3      3709            0.0000000000
     28477      3845  TIP3      H2            -19.8819961923        0.7913141387      -24.5599353613  TIP3      3709            0.0000000000
     28478      3846  TIP3      OH2           -17.7050111145        1.2377965381      -41.7780745150  TIP3      3710            0.0000000000
     28479      3846  TIP3      H1            -18.0907618287        0.4874241133      -41.2875601749  TIP3      3710            0.0000000000
     28480      3846  TIP3      H2            -16.7564620036        1.0555321216      -41.6304203699  TIP3      3710            0.0000000000
     28481      3847  TIP3      OH2           -31.7405054657       -3.2208134838      -23.7129462382  TIP3      3711            0.0000000000
     28482      3847  TIP3      H1            -32.0940739217       -4.0302671806      -24.1150275516  TIP3      3711            0.0000000000
     28483      3847  TIP3      H2            -32.4374891743       -2.6071412527      -23.9711713803  TIP3      3711            0.0000000000
     28484      3848  TIP3      OH2           -27.0580098222       -2.4849870557      -42.1055211148  TIP3      3712            0.0000000000
     28485      3848  TIP3      H1            -26.6365369549       -2.9327222304      -41.3552243489  TIP3      3712            0.0000000000
     28486      3848  TIP3      H2            -26.6096865950       -2.8959749985      -42.8668880972  TIP3      3712            0.0000000000
     28487      3849  TIP3      OH2           -24.9702694792       -3.3184261481      -25.1815478172  TIP3      3713            0.0000000000
     28488      3849  TIP3      H1            -25.3069179166       -2.7212747814      -25.8897786433  TIP3      3713            0.0000000000
     28489      3849  TIP3      H2            -25.2272896615       -4.2177726369      -25.4922621149  TIP3      3713            0.0000000000
     28490      3850  TIP3      OH2           -19.1652083059       -3.3828074576      -27.2921673478  TIP3      3714            0.0000000000
     28491      3850  TIP3      H1            -18.3206358788       -2.8875893551      -27.2185590380  TIP3      3714            0.0000000000
     28492      3850  TIP3      H2            -19.7907808398       -2.6267374084      -27.2775326443  TIP3      3714            0.0000000000
     28493      3851  TIP3      OH2           -31.2762418657       -5.7539607303      -24.8913881272  TIP3      3715            0.0000000000
     28494      3851  TIP3      H1            -30.4061107179       -5.8286590737      -25.3085917093  TIP3      3715            0.0000000000
     28495      3851  TIP3      H2            -31.0002371931       -5.7840710263      -23.9661766431  TIP3      3715            0.0000000000
     28496      3852  TIP3      OH2           -26.1010361551       -4.6594419025      -39.6294796812  TIP3      3716            0.0000000000
     28497      3852  TIP3      H1            -26.7983367524       -5.2087134674      -39.2358857920  TIP3      3716            0.0000000000
     28498      3852  TIP3      H2            -25.7502638155       -5.2741621390      -40.2984870925  TIP3      3716            0.0000000000
     28499      3853  TIP3      OH2           -27.2359467585       -6.9704128968      -28.2151909762  TIP3      3717            0.0000000000
     28500      3853  TIP3      H1            -27.7298137487       -6.1229226942      -28.1838661852  TIP3      3717            0.0000000000
     28501      3853  TIP3      H2            -26.3942064409       -6.6685434433      -28.6174547329  TIP3      3717            0.0000000000
     28502      3854  TIP3      OH2           -25.0450245756       -6.7543637512      -41.4641321253  TIP3      3718            0.0000000000
     28503      3854  TIP3      H1            -24.8290594188       -6.9064114653      -42.3962082062  TIP3      3718            0.0000000000
     28504      3854  TIP3      H2            -24.1878577652       -6.4327760075      -41.0961145035  TIP3      3718            0.0000000000
     28505      3855  TIP3      OH2           -21.4528825891       -4.1654103271      -23.8182687755  TIP3      3719            0.0000000000
     28506      3855  TIP3      H1            -20.6251173253       -4.5590301020      -24.1256846786  TIP3      3719            0.0000000000
     28507      3855  TIP3      H2            -21.9552626264       -4.9394989792      -23.4831033472  TIP3      3719            0.0000000000
     28508      3856  TIP3      OH2           -16.1296616365       -3.8457782667      -42.4151022366  TIP3      3720            0.0000000000
     28509      3856  TIP3      H1            -16.6745022752       -3.8527773363      -43.2149309532  TIP3      3720            0.0000000000
     28510      3856  TIP3      H2            -15.7296034505       -2.9666286352      -42.5071336988  TIP3      3720            0.0000000000
     28511      3857  TIP3      OH2           -26.3779028712       -9.1127901401      -26.8334345194  TIP3      3721            0.0000000000
     28512      3857  TIP3      H1            -26.5127382539       -9.8970947830      -27.4173718096  TIP3      3721            0.0000000000
     28513      3857  TIP3      H2            -26.7467028126       -8.3712376005      -27.3632834119  TIP3      3721            0.0000000000
     28514      3858  TIP3      OH2           -26.4845738725      -11.2244629849      -28.6425410459  TIP3      3722            0.0000000000
     28515      3858  TIP3      H1            -25.9758392661      -10.8258489674      -29.3944049412  TIP3      3722            0.0000000000
     28516      3858  TIP3      H2            -27.3904612816      -11.2830566493      -29.0220320190  TIP3      3722            0.0000000000
     28517      3859  TIP3      OH2           -24.7377599588       -5.6053680058      -28.6271259538  TIP3      3723            0.0000000000
     28518      3859  TIP3      H1            -23.8476809669       -5.7646562249      -28.9680667749  TIP3      3723            0.0000000000
     28519      3859  TIP3      H2            -25.0450649757       -4.8606498240      -29.1818654417  TIP3      3723            0.0000000000
     28520      3860  TIP3      OH2           -20.1707486554       -7.6921010170      -23.1028490082  TIP3      3724            0.0000000000
     28521      3860  TIP3      H1            -20.2892141322       -8.5938042308      -22.7378490759  TIP3      3724            0.0000000000
     28522      3860  TIP3      H2            -19.3015439406       -7.7755783955      -23.5247396504  TIP3      3724            0.0000000000
     28523      3861  TIP3      OH2           -18.6421196712       -4.8638450146      -25.0479459420  TIP3      3725            0.0000000000
     28524      3861  TIP3      H1            -18.9513225361       -4.3684379733      -25.8422111567  TIP3      3725            0.0000000000
     28525      3861  TIP3      H2            -17.6912650065       -4.9641557383      -25.2555615420  TIP3      3725            0.0000000000
     28526      3862  TIP3      OH2           -27.6347145615       -9.1183045682      -24.5061985916  TIP3      3726            0.0000000000
     28527      3862  TIP3      H1            -28.5833060943       -9.0718293777      -24.7125418134  TIP3      3726            0.0000000000
     28528      3862  TIP3      H2            -27.2155696952       -9.0694547278      -25.3927793199  TIP3      3726            0.0000000000
     28529      3863  TIP3      OH2           -25.2718461770      -13.6890497929      -28.7708210609  TIP3      3727            0.0000000000
     28530      3863  TIP3      H1            -25.6997628934      -12.8039489548      -28.6929758218  TIP3      3727            0.0000000000
     28531      3863  TIP3      H2            -26.0327959937      -14.2174285265      -29.0515140773  TIP3      3727            0.0000000000
     28532      3864  TIP3      OH2           -24.4701825036       -9.2908767344      -24.9040894620  TIP3      3728            0.0000000000
     28533      3864  TIP3      H1            -25.0347087440       -9.4314837971      -24.1353310624  TIP3      3728            0.0000000000
     28534      3864  TIP3      H2            -25.1040747901       -9.4454064372      -25.6362288362  TIP3      3728            0.0000000000
     28535      3865  TIP3      OH2           -21.7992573183       -9.9316153085      -25.6380759687  TIP3      3729            0.0000000000
     28536      3865  TIP3      H1            -22.7305023996      -10.0378676650      -25.3698569781  TIP3      3729            0.0000000000
     28537      3865  TIP3      H2            -21.3643710802      -10.5785963278      -25.0247180953  TIP3      3729            0.0000000000
     28538      3866  TIP3      OH2           -20.3936311401      -11.8112407731      -24.0440971211  TIP3      3730            0.0000000000
     28539      3866  TIP3      H1            -19.9476909590      -12.6718730549      -24.0429894427  TIP3      3730            0.0000000000
     28540      3866  TIP3      H2            -20.1976367423      -11.5438699134      -23.1196363419  TIP3      3730            0.0000000000
     28541      3867  TIP3      OH2           -30.2177266367      -10.5592208231      -24.2805036408  TIP3      3731            0.0000000000
     28542      3867  TIP3      H1            -29.9731973954      -11.2225218621      -24.9391590472  TIP3      3731            0.0000000000
     28543      3867  TIP3      H2            -30.6140882736      -11.1119367772      -23.5991455014  TIP3      3731            0.0000000000
     28544      3868  TIP3      OH2           -25.3637073575      -14.4310056154      -26.1488630823  TIP3      3732            0.0000000000
     28545      3868  TIP3      H1            -24.9247812436      -15.2990330933      -26.0950579283  TIP3      3732            0.0000000000
     28546      3868  TIP3      H2            -25.2898759711      -14.2149290663      -27.1056925933  TIP3      3732            0.0000000000
     28547      3869  TIP3      OH2           -25.4985268837      -13.4328881837      -23.2871313154  TIP3      3733            0.0000000000
     28548      3869  TIP3      H1            -25.3167112424      -13.6721596305      -24.2143309273  TIP3      3733            0.0000000000
     28549      3869  TIP3      H2            -25.6988834306      -12.4872738772      -23.3423570230  TIP3      3733            0.0000000000
     28550      3870  TIP3      OH2           -25.4814811928        4.6073945229      -40.9056384910  TIP3      3734            0.0000000000
     28551      3870  TIP3      H1            -24.5922322377        4.3571819966      -40.5856060017  TIP3      3734            0.0000000000
     28552      3870  TIP3      H2            -25.2547096543        4.8247713542      -41.8381236677  TIP3      3734            0.0000000000
     28553      3871  TIP3      OH2           -31.4528526600       -1.1617009187      -40.9372668838  TIP3      3735            0.0000000000
     28554      3871  TIP3      H1            -31.8043344607       -0.2630682273      -40.9485287150  TIP3      3735            0.0000000000
     28555      3871  TIP3      H2            -32.1022471585       -1.6528918337      -41.4662784196  TIP3      3735            0.0000000000
     28556      3872  TIP3      OH2            33.3286013836        3.2800879096      -37.2022228049  TIP3      3736            0.0000000000
     28557      3872  TIP3      H1             32.3628301166        3.4020208175      -37.1518989433  TIP3      3736            0.0000000000
     28558      3872  TIP3      H2             33.5607935649        3.3955237008      -36.2665426527  TIP3      3736            0.0000000000
     28559      3873  TIP3      OH2           -31.9045274165        2.3509604759      -34.2284504364  TIP3      3737            0.0000000000
     28560      3873  TIP3      H1            -32.5233589108        1.8997703798      -33.6298837581  TIP3      3737            0.0000000000
     28561      3873  TIP3      H2            -31.2949751343        2.7283052949      -33.5573710365  TIP3      3737            0.0000000000
     28562      3874  TIP3      OH2           -14.8087284876        3.1774851655      -31.2727586634  TIP3      3738            0.0000000000
     28563      3874  TIP3      H1            -14.4352699457        3.4741873780      -30.4208609430  TIP3      3738            0.0000000000
     28564      3874  TIP3      H2            -14.0209178387        2.8870954850      -31.7500375559  TIP3      3738            0.0000000000
     28565      3875  TIP3      OH2           -14.7596214714        2.1695360147      -28.3819022554  TIP3      3739            0.0000000000
     28566      3875  TIP3      H1            -15.2529325986        1.4784158969      -28.8867363474  TIP3      3739            0.0000000000
     28567      3875  TIP3      H2            -14.4370674628        1.6621902414      -27.6190570147  TIP3      3739            0.0000000000
     28568      3876  TIP3      OH2           -15.3947666414       -3.3220422363      -38.5372894777  TIP3      3740            0.0000000000
     28569      3876  TIP3      H1            -14.5681283732       -2.9430341547      -38.1565490132  TIP3      3740            0.0000000000
     28570      3876  TIP3      H2            -15.5672155413       -4.0212319078      -37.8737191343  TIP3      3740            0.0000000000
     28571      3877  TIP3      OH2           -14.8870671467       -5.3441155616      -36.3543613310  TIP3      3741            0.0000000000
     28572      3877  TIP3      H1            -15.5398354817       -6.0464030327      -36.1249630057  TIP3      3741            0.0000000000
     28573      3877  TIP3      H2            -14.3309519946       -5.3484037006      -35.5480264453  TIP3      3741            0.0000000000
     28574      3878  TIP3      OH2           -15.3214056591       -2.7509973671      -31.8553199855  TIP3      3742            0.0000000000
     28575      3878  TIP3      H1            -14.5877829491       -3.4049193155      -31.8710707865  TIP3      3742            0.0000000000
     28576      3878  TIP3      H2            -14.8126697317       -1.9300258599      -31.9792096284  TIP3      3742            0.0000000000
     28577      3879  TIP3      OH2           -16.4632901515        0.2420778034      -29.3468051557  TIP3      3743            0.0000000000
     28578      3879  TIP3      H1            -17.1109808871        0.9007519683      -29.0497900878  TIP3      3743            0.0000000000
     28579      3879  TIP3      H2            -16.8607785422       -0.0783357903      -30.1850741363  TIP3      3743            0.0000000000
     28580      3880  TIP3      OH2           -14.4934585195       -5.0823820802      -40.4031307922  TIP3      3744            0.0000000000
     28581      3880  TIP3      H1            -15.1994821935       -4.7700208419      -41.0032497258  TIP3      3744            0.0000000000
     28582      3880  TIP3      H2            -14.6071109258       -4.4136091886      -39.6954833287  TIP3      3744            0.0000000000
     28583      3881  TIP3      OH2           -15.4548462835       -8.2144509055      -41.6091400591  TIP3      3745            0.0000000000
     28584      3881  TIP3      H1            -15.0522865432       -7.6243437076      -42.2715114937  TIP3      3745            0.0000000000
     28585      3881  TIP3      H2            -16.3012113397       -8.3921523385      -42.0356864780  TIP3      3745            0.0000000000
     28586      3882  TIP3      OH2           -16.5418093039       -7.3869523385      -35.5266142229  TIP3      3746            0.0000000000
     28587      3882  TIP3      H1            -17.0317826221       -8.0110762117      -36.0947432628  TIP3      3746            0.0000000000
     28588      3882  TIP3      H2            -16.8888347982       -7.5752922600      -34.6364863352  TIP3      3746            0.0000000000
     28589      3883  TIP3      OH2           -32.0985429319       -5.2738810509      -31.4010329906  TIP3      3747            0.0000000000
     28590      3883  TIP3      H1            -32.1486661211       -5.1064769811      -32.3647558149  TIP3      3747            0.0000000000
     28591      3883  TIP3      H2            -31.1280614637       -5.3755244436      -31.2830115876  TIP3      3747            0.0000000000
     28592      3884  TIP3      OH2           -15.9379259046       -4.7767545483      -26.1000346350  TIP3      3748            0.0000000000
     28593      3884  TIP3      H1            -15.4559290088       -5.5903048191      -25.8311586389  TIP3      3748            0.0000000000
     28594      3884  TIP3      H2            -15.2291423490       -4.1120408256      -26.1915560503  TIP3      3748            0.0000000000
     28595      3885  TIP3      OH2           -15.0591297646       -7.3049154837      -25.7631737359  TIP3      3749            0.0000000000
     28596      3885  TIP3      H1            -15.8029580997       -7.5939066204      -25.1996592272  TIP3      3749            0.0000000000
     28597      3885  TIP3      H2            -14.4424565607       -8.0618321912      -25.6442701491  TIP3      3749            0.0000000000
     28598      3886  TIP3      OH2           -17.6500051867       -9.1654683184      -37.3226398749  TIP3      3750            0.0000000000
     28599      3886  TIP3      H1            -17.6769148610      -10.1442949434      -37.1928104636  TIP3      3750            0.0000000000
     28600      3886  TIP3      H2            -16.8259882586       -9.1139341480      -37.8289311767  TIP3      3750            0.0000000000
     28601      3887  TIP3      OH2           -16.3467275539       -8.4757718573      -31.9646024986  TIP3      3751            0.0000000000
     28602      3887  TIP3      H1            -15.3582127640       -8.4334902478      -31.9575101701  TIP3      3751            0.0000000000
     28603      3887  TIP3      H2            -16.4875014688       -8.3687262369      -31.0018386759  TIP3      3751            0.0000000000
     28604      3888  TIP3      OH2           -16.4922454112       -7.9263596117      -29.1789412129  TIP3      3752            0.0000000000
     28605      3888  TIP3      H1            -17.2748033323       -7.7441170269      -28.6244447701  TIP3      3752            0.0000000000
     28606      3888  TIP3      H2            -16.0768674260       -7.0346377511      -29.2411510131  TIP3      3752            0.0000000000
     28607      3889  TIP3      OH2           -31.5056431789       -9.0209669925      -26.2053370235  TIP3      3753            0.0000000000
     28608      3889  TIP3      H1            -31.0009554790       -9.5152297282      -25.5287676800  TIP3      3753            0.0000000000
     28609      3889  TIP3      H2            -32.3981938222       -9.0581204398      -25.7869579612  TIP3      3753            0.0000000000
     28610      3890  TIP3      OH2           -14.4926254222      -14.6585482351      -23.7420026365  TIP3      3754            0.0000000000
     28611      3890  TIP3      H1            -14.1746001993      -15.2969070662      -24.3986490011  TIP3      3754            0.0000000000
     28612      3890  TIP3      H2            -14.2728910544      -13.8047806846      -24.1331899302  TIP3      3754            0.0000000000
     28613      3891  TIP3      OH2           -17.4865158950      -11.8439326656      -36.8311405208  TIP3      3755            0.0000000000
     28614      3891  TIP3      H1            -17.2358558767      -11.8757885129      -35.8838806940  TIP3      3755            0.0000000000
     28615      3891  TIP3      H2            -17.1450940247      -12.6799662268      -37.1748347014  TIP3      3755            0.0000000000
     28616      3892  TIP3      OH2           -31.0556117785      -11.0949278161      -32.4142284744  TIP3      3756            0.0000000000
     28617      3892  TIP3      H1            -30.6623618790      -12.0011977610      -32.4524973896  TIP3      3756            0.0000000000
     28618      3892  TIP3      H2            -30.2783511485      -10.5282864485      -32.2424333837  TIP3      3756            0.0000000000
     28619      3893  TIP3      OH2           -32.4940101082       -8.1149326262      -30.8704984113  TIP3      3757            0.0000000000
     28620      3893  TIP3      H1            -31.7854109073       -8.5787585021      -31.3476568590  TIP3      3757            0.0000000000
     28621      3893  TIP3      H2            -32.1418947670       -7.2021705458      -30.8561731461  TIP3      3757            0.0000000000
     28622      3894  TIP3      OH2           -14.8678850969      -11.9007243085      -24.9886194014  TIP3      3758            0.0000000000
     28623      3894  TIP3      H1            -15.5399526007      -11.7403098237      -24.2999788386  TIP3      3758            0.0000000000
     28624      3894  TIP3      H2            -15.4199868615      -12.0199792773      -25.7770717742  TIP3      3758            0.0000000000
     28625      3895  TIP3      OH2           -14.9914966169      -11.6317726691      -40.6938103570  TIP3      3759            0.0000000000
     28626      3895  TIP3      H1            -15.4624332451      -11.7124140456      -41.5350541771  TIP3      3759            0.0000000000
     28627      3895  TIP3      H2            -14.3118975172      -10.9873639830      -40.9408964226  TIP3      3759            0.0000000000
     28628      3896  TIP3      OH2           -32.4585563474      -11.9135401774      -37.8902381179  TIP3      3760            0.0000000000
     28629      3896  TIP3      H1            -32.1958739866      -11.8588092441      -36.9402205215  TIP3      3760            0.0000000000
     28630      3896  TIP3      H2            -31.7202512573      -11.4452451133      -38.3302450742  TIP3      3760            0.0000000000
     28631      3897  TIP3      OH2           -17.4755868499        3.1514498519      -35.1855791578  TIP3      3761            0.0000000000
     28632      3897  TIP3      H1            -16.6604397324        3.0927683532      -35.7235283977  TIP3      3761            0.0000000000
     28633      3897  TIP3      H2            -17.2981619616        3.8475010483      -34.5337315417  TIP3      3761            0.0000000000
     28634      3898  TIP3      OH2           -32.6626139063      -13.3985114321      -29.5246440447  TIP3      3762            0.0000000000
     28635      3898  TIP3      H1            -33.5475051471      -13.5694089934      -29.1476014875  TIP3      3762            0.0000000000
     28636      3898  TIP3      H2            -32.8548697336      -12.7441423128      -30.2144002983  TIP3      3762            0.0000000000
     28637      3899  TIP3      OH2           -30.1278422144       -0.2242455709      -24.9318099213  TIP3      3763            0.0000000000
     28638      3899  TIP3      H1            -30.6847552192       -0.4219746317      -25.6982787573  TIP3      3763            0.0000000000
     28639      3899  TIP3      H2            -29.7842308894       -1.1172635609      -24.7418089229  TIP3      3763            0.0000000000
     28640      3900  TIP3      OH2           -27.2940919619        1.7149785760      -28.3716804607  TIP3      3764            0.0000000000
     28641      3900  TIP3      H1            -27.4596720322        2.5496032305      -28.8604705223  TIP3      3764            0.0000000000
     28642      3900  TIP3      H2            -26.3489284116        1.6004921574      -28.6238045563  TIP3      3764            0.0000000000
     28643      3901  TIP3      OH2           -23.6048757736        2.4582420768      -26.0368567807  TIP3      3765            0.0000000000
     28644      3901  TIP3      H1            -23.3918816319        2.3344815137      -25.0879822193  TIP3      3765            0.0000000000
     28645      3901  TIP3      H2            -22.7469661287        2.8078556807      -26.3390480651  TIP3      3765            0.0000000000
     28646      3902  TIP3      OH2           -21.7235447467        4.3141592796      -26.7068545171  TIP3      3766            0.0000000000
     28647      3902  TIP3      H1            -21.0047014922        3.8988468197      -27.2008544805  TIP3      3766            0.0000000000
     28648      3902  TIP3      H2            -21.2568636494        4.4972339365      -25.8592625807  TIP3      3766            0.0000000000
     28649      3903  TIP3      OH2           -15.7347459221      -13.8443199774      -27.2329925261  TIP3      3767            0.0000000000
     28650      3903  TIP3      H1            -16.4633449047      -13.4495947151      -27.7266725025  TIP3      3767            0.0000000000
     28651      3903  TIP3      H2            -15.6239614955      -14.7089476551      -27.6895067708  TIP3      3767            0.0000000000
     28652      3904  TIP3      OH2           -30.2292426829        4.3418084208      -28.8228059182  TIP3      3768            0.0000000000
     28653      3904  TIP3      H1            -30.9959814525        4.8426913870      -29.1801276143  TIP3      3768            0.0000000000
     28654      3904  TIP3      H2            -30.2571563284        4.6230284309      -27.9004411397  TIP3      3768            0.0000000000
     28655      3905  TIP3      OH2           -27.6107528711        4.0280877737      -29.8841783968  TIP3      3769            0.0000000000
     28656      3905  TIP3      H1            -28.5742969956        4.1046541392      -29.7056280726  TIP3      3769            0.0000000000
     28657      3905  TIP3      H2            -27.5043446000        4.6906738558      -30.6030952474  TIP3      3769            0.0000000000
     28658      3906  TIP3      OH2           -22.8572113023        3.4783537677      -30.5278716863  TIP3      3770            0.0000000000
     28659      3906  TIP3      H1            -23.4857982689        3.8157251532      -31.1843654028  TIP3      3770            0.0000000000
     28660      3906  TIP3      H2            -22.6758323486        4.3158559134      -30.0502381270  TIP3      3770            0.0000000000
     28661      3907  TIP3      OH2           -20.8591751076        2.2657982890      -29.0850391743  TIP3      3771            0.0000000000
     28662      3907  TIP3      H1            -21.4847452940        2.6280537171      -29.7471450909  TIP3      3771            0.0000000000
     28663      3907  TIP3      H2            -20.0507497057        2.7647160865      -29.3152596627  TIP3      3771            0.0000000000
     28664      3908  TIP3      OH2           -18.4994739791        3.5876538327      -29.3275126925  TIP3      3772            0.0000000000
     28665      3908  TIP3      H1            -18.1910410733        4.5162307409      -29.4749690697  TIP3      3772            0.0000000000
     28666      3908  TIP3      H2            -18.1077905996        3.1469733542      -30.1196470704  TIP3      3772            0.0000000000
     28667      3909  TIP3      OH2           -30.3992677564        3.0164616399      -31.8776643412  TIP3      3773            0.0000000000
     28668      3909  TIP3      H1            -30.8900454700        2.4172936793      -31.2936211152  TIP3      3773            0.0000000000
     28669      3909  TIP3      H2            -29.6046960988        2.4933349612      -32.1122567633  TIP3      3773            0.0000000000
     28670      3910  TIP3      OH2           -28.3792450205        1.7904631715      -33.1462856397  TIP3      3774            0.0000000000
     28671      3910  TIP3      H1            -28.5592097542        0.8513370310      -32.9429876752  TIP3      3774            0.0000000000
     28672      3910  TIP3      H2            -27.5912069121        1.9138750052      -32.5622546195  TIP3      3774            0.0000000000
     28673      3911  TIP3      OH2           -26.2360014197        1.6495199681      -31.5854978470  TIP3      3775            0.0000000000
     28674      3911  TIP3      H1            -25.7660158828        0.8221938766      -31.7940231442  TIP3      3775            0.0000000000
     28675      3911  TIP3      H2            -25.8899138648        1.8569598237      -30.6942693142  TIP3      3775            0.0000000000
     28676      3912  TIP3      OH2           -22.6362197873      -12.3306083461      -33.0967502207  TIP3      3776            0.0000000000
     28677      3912  TIP3      H1            -23.4404395603      -12.7391754835      -32.7029180433  TIP3      3776            0.0000000000
     28678      3912  TIP3      H2            -22.0810428303      -13.1036085510      -33.2537465077  TIP3      3776            0.0000000000
     28679      3913  TIP3      OH2           -16.9253519989      -14.2118434538      -33.1946960816  TIP3      3777            0.0000000000
     28680      3913  TIP3      H1            -16.3008091701      -13.6469125730      -33.7092540434  TIP3      3777            0.0000000000
     28681      3913  TIP3      H2            -17.7838628919      -13.8332219138      -33.4755945770  TIP3      3777            0.0000000000
     28682      3914  TIP3      OH2           -15.2669679445      -13.1751049969      -35.1423331916  TIP3      3778            0.0000000000
     28683      3914  TIP3      H1            -14.5823327547      -13.7303164281      -35.5749628950  TIP3      3778            0.0000000000
     28684      3914  TIP3      H2            -14.8026696899      -12.3061387145      -35.0379272850  TIP3      3778            0.0000000000
     28685      3915  TIP3      OH2           -29.5175201925      -13.9795809148      -35.4362602344  TIP3      3779            0.0000000000
     28686      3915  TIP3      H1            -30.4021593656      -14.1056711552      -35.8147461502  TIP3      3779            0.0000000000
     28687      3915  TIP3      H2            -29.1510722200      -14.9017108298      -35.4465552500  TIP3      3779            0.0000000000
     28688      3916  TIP3      OH2           -31.8011702006      -14.0121603045      -39.8553985667  TIP3      3780            0.0000000000
     28689      3916  TIP3      H1            -31.4856554306      -13.3086121631      -40.4482742861  TIP3      3780            0.0000000000
     28690      3916  TIP3      H2            -32.1404493194      -13.5217532335      -39.0798596434  TIP3      3780            0.0000000000
     28691      3917  TIP3      OH2           -25.2028176498      -14.6681496879      -35.1093110159  TIP3      3781            0.0000000000
     28692      3917  TIP3      H1            -24.3857107819      -14.4523121866      -35.5904074051  TIP3      3781            0.0000000000
     28693      3917  TIP3      H2            -25.2894111286      -13.9062439535      -34.5165441264  TIP3      3781            0.0000000000
     28694      3918  TIP3      OH2           -19.5718893392      -13.7310630610      -34.0061649257  TIP3      3782            0.0000000000
     28695      3918  TIP3      H1            -19.7825465204      -13.4278029263      -34.8998050197  TIP3      3782            0.0000000000
     28696      3918  TIP3      H2            -20.1286980966      -14.5378923626      -33.9126261106  TIP3      3782            0.0000000000
     28697      3919  TIP3      OH2           -18.7231589721      -14.1149585237      -38.9660080126  TIP3      3783            0.0000000000
     28698      3919  TIP3      H1            -19.2931781609      -13.3351906224      -38.8693680597  TIP3      3783            0.0000000000
     28699      3919  TIP3      H2            -19.0615265797      -14.6731144063      -38.2148596571  TIP3      3783            0.0000000000
     28700      3920  TIP3      OH2           -30.6852350067        2.1769772190      -39.1047204125  TIP3      3784            0.0000000000
     28701      3920  TIP3      H1            -31.5784625974        2.0549413842      -38.7512045173  TIP3      3784            0.0000000000
     28702      3920  TIP3      H2            -30.7508928084        3.1425279775      -39.2881343873  TIP3      3784            0.0000000000
     28703      3921  TIP3      OH2           -29.8178922435      -12.3016847111      -40.9975347173  TIP3      3785            0.0000000000
     28704      3921  TIP3      H1            -29.1238532019      -12.8456266378      -41.4101645311  TIP3      3785            0.0000000000
     28705      3921  TIP3      H2            -29.3454925686      -11.9950766416      -40.1965026817  TIP3      3785            0.0000000000
     28706      3922  TIP3      OH2           -24.3574990180      -11.2603773433      -38.7449389103  TIP3      3786            0.0000000000
     28707      3922  TIP3      H1            -24.1402903358      -11.9643501362      -38.0973690043  TIP3      3786            0.0000000000
     28708      3922  TIP3      H2            -24.1372730789      -10.4761071394      -38.1985549876  TIP3      3786            0.0000000000
     28709      3923  TIP3      OH2           -22.8785580809        3.5326414362      -40.6724819897  TIP3      3787            0.0000000000
     28710      3923  TIP3      H1            -21.9975658279        3.7608735356      -41.0201010018  TIP3      3787            0.0000000000
     28711      3923  TIP3      H2            -22.7519619988        2.5709578983      -40.5757539302  TIP3      3787            0.0000000000
     28712      3924  TIP3      OH2           -15.7333564856        2.5136435524      -37.1706282259  TIP3      3788            0.0000000000
     28713      3924  TIP3      H1            -16.0901307353        1.7513745152      -37.6928613359  TIP3      3788            0.0000000000
     28714      3924  TIP3      H2            -15.9094853539        3.2158700899      -37.8358234257  TIP3      3788            0.0000000000
     28715      3925  TIP3      OH2           -30.7139551311      -13.1836346274      -26.2951832844  TIP3      3789            0.0000000000
     28716      3925  TIP3      H1            -31.4704457792      -13.7467361994      -26.0531466884  TIP3      3789            0.0000000000
     28717      3925  TIP3      H2            -30.0179434318      -13.4241618870      -25.6589866172  TIP3      3789            0.0000000000
     28718      3926  TIP3      OH2           -28.1812931127      -14.0095193362      -23.8723635820  TIP3      3790            0.0000000000
     28719      3926  TIP3      H1            -27.4832507621      -13.7597613689      -24.4873995495  TIP3      3790            0.0000000000
     28720      3926  TIP3      H2            -27.7734863756      -14.8468778139      -23.5721950769  TIP3      3790            0.0000000000
     28721      3927  TIP3      OH2           -29.3286811988        3.0510947309      -41.6757112537  TIP3      3791            0.0000000000
     28722      3927  TIP3      H1            -30.1726413940        3.5381001357      -41.8032556976  TIP3      3791            0.0000000000
     28723      3927  TIP3      H2            -29.5813993910        2.3207475334      -41.0853537698  TIP3      3791            0.0000000000
     28724      3928  TIP3      OH2           -19.9765785540      -14.8965373395      -24.7262401495  TIP3      3792            0.0000000000
     28725      3928  TIP3      H1            -20.0986716874      -15.1135979029      -23.7789926918  TIP3      3792            0.0000000000
     28726      3928  TIP3      H2            -19.0244848882      -14.6412932586      -24.7619076324  TIP3      3792            0.0000000000
     28727      3929  TIP3      OH2           -16.5003034774        1.5599145082      -25.6391288386  TIP3      3793            0.0000000000
     28728      3929  TIP3      H1            -17.1285052595        1.5853717891      -26.4026133223  TIP3      3793            0.0000000000
     28729      3929  TIP3      H2            -16.4933309799        2.5072253507      -25.4159560280  TIP3      3793            0.0000000000
     28730      3930  TIP3      OH2            -1.8626866680       -4.3511476585      -35.7177627832  TIP3      3794            0.0000000000
     28731      3930  TIP3      H1             -2.2015117243       -3.4395196844      -35.8738048254  TIP3      3794            0.0000000000
     28732      3930  TIP3      H2             -2.5588404522       -4.8925598463      -36.1153901708  TIP3      3794            0.0000000000
     28733      3931  TIP3      OH2            -3.2269999312       -5.7468053695      -32.3368929916  TIP3      3795            0.0000000000
     28734      3931  TIP3      H1             -3.1297288658       -6.1089879676      -31.4296548635  TIP3      3795            0.0000000000
     28735      3931  TIP3      H2             -3.9597488804       -6.2497367806      -32.7210860958  TIP3      3795            0.0000000000
     28736      3932  TIP3      OH2           -11.1420856782       -5.8879580296      -30.6306315317  TIP3      3796            0.0000000000
     28737      3932  TIP3      H1            -11.1186242112       -6.5330682043      -29.9058337918  TIP3      3796            0.0000000000
     28738      3932  TIP3      H2            -10.3137696320       -5.4008171601      -30.4883899997  TIP3      3796            0.0000000000
     28739      3933  TIP3      OH2             0.2448474511       -2.3096397324      -33.3498825118  TIP3      3797            0.0000000000
     28740      3933  TIP3      H1             -0.0338977155       -3.0389624855      -32.7689677221  TIP3      3797            0.0000000000
     28741      3933  TIP3      H2              0.6873895827       -1.7217859059      -32.7151054218  TIP3      3797            0.0000000000
     28742      3934  TIP3      OH2           -10.0052042097       -0.9964522268      -32.3908457191  TIP3      3798            0.0000000000
     28743      3934  TIP3      H1            -10.3061939925       -1.8967156453      -32.6242856360  TIP3      3798            0.0000000000
     28744      3934  TIP3      H2             -9.0523186466       -1.1209128907      -32.5741849283  TIP3      3798            0.0000000000
     28745      3935  TIP3      OH2           -13.0158612457       -7.8564284162      -36.5129376079  TIP3      3799            0.0000000000
     28746      3935  TIP3      H1            -13.3039402929       -6.9410545711      -36.6408500545  TIP3      3799            0.0000000000
     28747      3935  TIP3      H2            -13.8656992038       -8.3223478292      -36.5114590095  TIP3      3799            0.0000000000
     28748      3936  TIP3      OH2           -12.9312152824       -5.6481418540      -33.9395403076  TIP3      3800            0.0000000000
     28749      3936  TIP3      H1            -12.4969017221       -6.5122179606      -33.7340615430  TIP3      3800            0.0000000000
     28750      3936  TIP3      H2            -12.1718338070       -5.0660376958      -34.0764722042  TIP3      3800            0.0000000000
     28751      3937  TIP3      OH2            -2.2748386064        2.8937272851      -33.7928333406  TIP3      3801            0.0000000000
     28752      3937  TIP3      H1             -1.6768487985        2.3392667726      -34.3477127647  TIP3      3801            0.0000000000
     28753      3937  TIP3      H2             -2.6273794752        2.2221545110      -33.1964546571  TIP3      3801            0.0000000000
     28754      3938  TIP3      OH2            -5.3198141345       -2.3583809636      -31.0212091256  TIP3      3802            0.0000000000
     28755      3938  TIP3      H1             -4.8091150474       -2.8882971192      -31.6522940260  TIP3      3802            0.0000000000
     28756      3938  TIP3      H2             -4.5978585282       -2.0315868828      -30.4432310049  TIP3      3802            0.0000000000
     28757      3939  TIP3      OH2             3.8363966394      -11.2681274062      -31.5063628955  TIP3      3803            0.0000000000
     28758      3939  TIP3      H1              3.9218754557      -11.0727073718      -30.5571166310  TIP3      3803            0.0000000000
     28759      3939  TIP3      H2              4.6154208877      -11.8335212050      -31.6038200609  TIP3      3803            0.0000000000
     28760      3940  TIP3      OH2            -1.3527673775       -8.3500118094      -30.8805088121  TIP3      3804            0.0000000000
     28761      3940  TIP3      H1             -1.4568980512       -9.3066333109      -30.7379165812  TIP3      3804            0.0000000000
     28762      3940  TIP3      H2             -1.3045746354       -8.3730504669      -31.8634708706  TIP3      3804            0.0000000000
     28763      3941  TIP3      OH2            -8.4206780756      -10.8772361221      -34.1145569591  TIP3      3805            0.0000000000
     28764      3941  TIP3      H1             -8.2166397100      -10.0532691272      -34.5945593652  TIP3      3805            0.0000000000
     28765      3941  TIP3      H2             -8.8834702837      -11.3824682358      -34.8114953014  TIP3      3805            0.0000000000
     28766      3942  TIP3      OH2            -0.9775163963      -10.1837303343      -35.2317805470  TIP3      3806            0.0000000000
     28767      3942  TIP3      H1             -0.2987818525      -10.7166319223      -34.7631923204  TIP3      3806            0.0000000000
     28768      3942  TIP3      H2             -0.4379835766       -9.7292452536      -35.9003336464  TIP3      3806            0.0000000000
     28769      3943  TIP3      OH2           -11.8888611373       -8.0654091091      -33.2317361265  TIP3      3807            0.0000000000
     28770      3943  TIP3      H1            -11.3180346655       -8.4823029976      -32.5534343577  TIP3      3807            0.0000000000
     28771      3943  TIP3      H2            -11.5105239035       -8.4428346242      -34.0535823993  TIP3      3807            0.0000000000
     28772      3944  TIP3      OH2            -7.4410603457       -6.5704009476      -33.8507615458  TIP3      3808            0.0000000000
     28773      3944  TIP3      H1             -6.4990346347       -6.8308417398      -33.8010457289  TIP3      3808            0.0000000000
     28774      3944  TIP3      H2             -7.7892447077       -7.3213455472      -34.3855847389  TIP3      3808            0.0000000000
     28775      3945  TIP3      OH2             3.8351145914      -10.2106131676      -28.8187109100  TIP3      3809            0.0000000000
     28776      3945  TIP3      H1              3.7209494089       -9.5113011888      -29.4930946187  TIP3      3809            0.0000000000
     28777      3945  TIP3      H2              3.8958178804       -9.6417938103      -28.0403444068  TIP3      3809            0.0000000000
     28778      3946  TIP3      OH2            -9.1219879485      -11.3227668450      -29.9405564665  TIP3      3810            0.0000000000
     28779      3946  TIP3      H1             -9.7031448673      -10.8006348860      -30.5367578582  TIP3      3810            0.0000000000
     28780      3946  TIP3      H2             -9.6666569656      -11.2845783245      -29.1226140100  TIP3      3810            0.0000000000
     28781      3947  TIP3      OH2            -2.7474494257       -1.9843706405      -36.6503990729  TIP3      3811            0.0000000000
     28782      3947  TIP3      H1             -2.9276057591       -1.9240249503      -37.6033540465  TIP3      3811            0.0000000000
     28783      3947  TIP3      H2             -3.2714908165       -1.2170029059      -36.3124026120  TIP3      3811            0.0000000000
     28784      3948  TIP3      OH2            -7.4722334742       -3.7772009355      -30.1311437335  TIP3      3812            0.0000000000
     28785      3948  TIP3      H1             -8.0119364764       -3.1451996152      -29.6026935154  TIP3      3812            0.0000000000
     28786      3948  TIP3      H2             -6.7581488037       -3.1883325777      -30.4667042176  TIP3      3812            0.0000000000
     28787      3949  TIP3      OH2             1.2945492552      -11.0731022702      -34.0331228367  TIP3      3813            0.0000000000
     28788      3949  TIP3      H1              0.8724638110      -11.2040478717      -33.1687123670  TIP3      3813            0.0000000000
     28789      3949  TIP3      H2              2.1684759765      -10.7547485575      -33.7529189890  TIP3      3813            0.0000000000
     28790      3950  TIP3      OH2            -9.9305328043       -9.5717870646      -32.0028322129  TIP3      3814            0.0000000000
     28791      3950  TIP3      H1             -9.3655222675       -8.8618681426      -31.6211444091  TIP3      3814            0.0000000000
     28792      3950  TIP3      H2             -9.4046897428       -9.8682802801      -32.7876352171  TIP3      3814            0.0000000000
     28793      3951  TIP3      OH2            -8.6185025968       -1.6018446039      -29.1085090962  TIP3      3815            0.0000000000
     28794      3951  TIP3      H1             -8.8611404487       -1.2045691124      -29.9613836696  TIP3      3815            0.0000000000
     28795      3951  TIP3      H2             -9.5061658228       -1.6089452339      -28.6733443023  TIP3      3815            0.0000000000
     28796      3952  TIP3      OH2           -12.9688742261       -2.2028488324      -38.1062553890  TIP3      3816            0.0000000000
     28797      3952  TIP3      H1            -12.9932739477       -1.8552128063      -39.0213708029  TIP3      3816            0.0000000000
     28798      3952  TIP3      H2            -12.6822629007       -1.4460346967      -37.5683458143  TIP3      3816            0.0000000000
     28799      3953  TIP3      OH2             0.9817491479       -0.3884259381      -31.3777497534  TIP3      3817            0.0000000000
     28800      3953  TIP3      H1              0.0093014780       -0.3723339644      -31.2184243451  TIP3      3817            0.0000000000
     28801      3953  TIP3      H2              1.0677499614        0.5135139702      -31.7454098280  TIP3      3817            0.0000000000
     28802      3954  TIP3      OH2             1.0577755335      -11.7132292777      -30.4029465199  TIP3      3818            0.0000000000
     28803      3954  TIP3      H1              0.3367309275      -11.5248904129      -31.0367558724  TIP3      3818            0.0000000000
     28804      3954  TIP3      H2              1.8442221017      -11.3638675694      -30.8508085438  TIP3      3818            0.0000000000
     28805      3955  TIP3      OH2            -6.2988886854      -14.5585163444      -32.3748123958  TIP3      3819            0.0000000000
     28806      3955  TIP3      H1             -6.6995158091      -15.4224671442      -32.1637612668  TIP3      3819            0.0000000000
     28807      3955  TIP3      H2             -7.0722506427      -13.9676684668      -32.2007444868  TIP3      3819            0.0000000000
     28808      3956  TIP3      OH2            -0.6828169539        1.4493518324      -35.2896703460  TIP3      3820            0.0000000000
     28809      3956  TIP3      H1             -0.3835477750        0.5862103060      -35.6563793293  TIP3      3820            0.0000000000
     28810      3956  TIP3      H2              0.1514828917        1.9732196698      -35.3568344028  TIP3      3820            0.0000000000
     28811      3957  TIP3      OH2             0.3503428659       -0.7912785400      -36.4128566185  TIP3      3821            0.0000000000
     28812      3957  TIP3      H1              0.1036154272       -1.3983148779      -37.1292966043  TIP3      3821            0.0000000000
     28813      3957  TIP3      H2              0.1355063682       -1.3185805937      -35.6217878298  TIP3      3821            0.0000000000
     28814      3958  TIP3      OH2             2.0666361031       -1.9500655739      -27.6858470640  TIP3      3822            0.0000000000
     28815      3958  TIP3      H1              2.0864803153       -2.6504118660      -28.3752717320  TIP3      3822            0.0000000000
     28816      3958  TIP3      H2              2.2585936778       -1.1628042910      -28.2504446290  TIP3      3822            0.0000000000
     28817      3959  TIP3      OH2            -3.5780046093       -5.5169983633      -38.3222167468  TIP3      3823            0.0000000000
     28818      3959  TIP3      H1             -4.1505940941       -4.7132812799      -38.2951216810  TIP3      3823            0.0000000000
     28819      3959  TIP3      H2             -2.7054296442       -5.1579997805      -38.5982428375  TIP3      3823            0.0000000000
     28820      3960  TIP3      OH2            -3.3518998848       -6.0933272494      -41.2636385936  TIP3      3824            0.0000000000
     28821      3960  TIP3      H1             -2.7324601569       -5.7407190923      -40.6150730739  TIP3      3824            0.0000000000
     28822      3960  TIP3      H2             -3.3894177368       -7.0301910446      -41.0331799016  TIP3      3824            0.0000000000
     28823      3961  TIP3      OH2             3.8252374809       -5.5059216863      -29.8309694476  TIP3      3825            0.0000000000
     28824      3961  TIP3      H1              3.1440690318       -4.8235464310      -29.9748925198  TIP3      3825            0.0000000000
     28825      3961  TIP3      H2              4.4575997345       -5.2649415631      -30.5431126266  TIP3      3825            0.0000000000
     28826      3962  TIP3      OH2             0.5808101972       -4.9318386864      -36.8588677359  TIP3      3826            0.0000000000
     28827      3962  TIP3      H1             -0.2835693060       -4.6840104277      -36.4532605129  TIP3      3826            0.0000000000
     28828      3962  TIP3      H2              0.9842016983       -5.3399484421      -36.0766652829  TIP3      3826            0.0000000000
     28829      3963  TIP3      OH2            -0.2810616432       -6.9413136152      -27.6652593596  TIP3      3827            0.0000000000
     28830      3963  TIP3      H1             -0.8304520638       -6.2173274750      -27.3067794303  TIP3      3827            0.0000000000
     28831      3963  TIP3      H2             -0.6327082375       -6.9809812629      -28.5700110298  TIP3      3827            0.0000000000
     28832      3964  TIP3      OH2            -8.6792916968       -4.7161783465      -35.2711596392  TIP3      3828            0.0000000000
     28833      3964  TIP3      H1             -8.6972368712       -5.0316909068      -36.1909799688  TIP3      3828            0.0000000000
     28834      3964  TIP3      H2             -8.1781181590       -5.4239413480      -34.8074429892  TIP3      3828            0.0000000000
     28835      3965  TIP3      OH2            -7.1985168937       -1.3532863708      -32.6766170553  TIP3      3829            0.0000000000
     28836      3965  TIP3      H1             -6.9417426248       -1.6046464832      -33.5782939018  TIP3      3829            0.0000000000
     28837      3965  TIP3      H2             -6.4843332680       -1.7285099445      -32.1115944979  TIP3      3829            0.0000000000
     28838      3966  TIP3      OH2            -8.3365675165       -5.8490398130      -31.4213373772  TIP3      3830            0.0000000000
     28839      3966  TIP3      H1             -7.9315716333       -5.8730762042      -32.3165540522  TIP3      3830            0.0000000000
     28840      3966  TIP3      H2             -7.8467196714       -5.1170861696      -30.9726551875  TIP3      3830            0.0000000000
     28841      3967  TIP3      OH2            -1.6348464301       -0.1640171754      -30.7856063138  TIP3      3831            0.0000000000
     28842      3967  TIP3      H1             -1.8601740849        0.3514840094      -29.9956288364  TIP3      3831            0.0000000000
     28843      3967  TIP3      H2             -1.8360012310       -1.0781403099      -30.4888834509  TIP3      3831            0.0000000000
     28844      3968  TIP3      OH2            -7.1249157428       -0.9502505710      -26.7502258443  TIP3      3832            0.0000000000
     28845      3968  TIP3      H1             -7.8878054460       -0.4946521345      -26.3263302635  TIP3      3832            0.0000000000
     28846      3968  TIP3      H2             -7.5246998490       -1.1274833107      -27.6290234073  TIP3      3832            0.0000000000
     28847      3969  TIP3      OH2            -0.9583697155       -5.4744521274      -38.9520163065  TIP3      3833            0.0000000000
     28848      3969  TIP3      H1             -0.2221114309       -5.2845200991      -38.3278657672  TIP3      3833            0.0000000000
     28849      3969  TIP3      H2             -0.5336767092       -5.1867575517      -39.7929131190  TIP3      3833            0.0000000000
     28850      3970  TIP3      OH2           -10.0543894143       -5.2029940912      -27.8908956440  TIP3      3834            0.0000000000
     28851      3970  TIP3      H1             -9.7685889215       -4.3528333453      -27.5372762436  TIP3      3834            0.0000000000
     28852      3970  TIP3      H2            -10.9189921734       -5.3344012588      -27.4590732863  TIP3      3834            0.0000000000
     28853      3971  TIP3      OH2            -4.1097176433        0.3327174926      -36.2292841927  TIP3      3835            0.0000000000
     28854      3971  TIP3      H1             -3.6607949444        0.9867194694      -35.6890370493  TIP3      3835            0.0000000000
     28855      3971  TIP3      H2             -4.2575932097        0.7793542694      -37.0860335976  TIP3      3835            0.0000000000
     28856      3972  TIP3      OH2            -9.2462675417        0.4470091773      -26.0399235325  TIP3      3836            0.0000000000
     28857      3972  TIP3      H1             -9.3177761229        0.9129433566      -26.9081469001  TIP3      3836            0.0000000000
     28858      3972  TIP3      H2            -10.1844946670        0.2608830252      -25.8103674055  TIP3      3836            0.0000000000
     28859      3973  TIP3      OH2             2.7525286427      -14.2997346661      -39.0499897780  TIP3      3837            0.0000000000
     28860      3973  TIP3      H1              1.7764979543      -14.4403628639      -39.1350326122  TIP3      3837            0.0000000000
     28861      3973  TIP3      H2              2.8671964814      -13.4584717848      -39.5413583758  TIP3      3837            0.0000000000
     28862      3974  TIP3      OH2            -9.4316299251       -5.7585221448      -38.1947759495  TIP3      3838            0.0000000000
     28863      3974  TIP3      H1            -10.1356864950       -5.1444664497      -38.4938423363  TIP3      3838            0.0000000000
     28864      3974  TIP3      H2             -9.9143406216       -6.5540003502      -37.9420404725  TIP3      3838            0.0000000000
     28865      3975  TIP3      OH2             4.0209331677        0.1298555763      -41.0671246392  TIP3      3839            0.0000000000
     28866      3975  TIP3      H1              4.0252378693        0.9719920731      -40.5622785248  TIP3      3839            0.0000000000
     28867      3975  TIP3      H2              4.6601196056        0.3457209896      -41.7638239581  TIP3      3839            0.0000000000
     28868      3976  TIP3      OH2           -13.2698717844       -2.8719365248      -28.9161401914  TIP3      3840            0.0000000000
     28869      3976  TIP3      H1            -13.9673474081       -3.0942517303      -29.5476722926  TIP3      3840            0.0000000000
     28870      3976  TIP3      H2            -12.8831540507       -3.7676707668      -28.7914674029  TIP3      3840            0.0000000000
     28871      3977  TIP3      OH2           -13.0591813164       -0.3498153002      -31.9163301461  TIP3      3841            0.0000000000
     28872      3977  TIP3      H1            -12.1805090815       -0.7561854961      -32.0056115848  TIP3      3841            0.0000000000
     28873      3977  TIP3      H2            -12.9471735694        0.1247546486      -31.0721502918  TIP3      3841            0.0000000000
     28874      3978  TIP3      OH2             4.4327596245        0.6893742466      -26.3621031345  TIP3      3842            0.0000000000
     28875      3978  TIP3      H1              4.2666100293       -0.2595619663      -26.5346168099  TIP3      3842            0.0000000000
     28876      3978  TIP3      H2              3.5886623546        0.9504947485      -25.9299025470  TIP3      3842            0.0000000000
     28877      3979  TIP3      OH2            -4.7038063893        0.1102068419      -27.3488519829  TIP3      3843            0.0000000000
     28878      3979  TIP3      H1             -4.5003388680        0.9019657160      -26.8105786725  TIP3      3843            0.0000000000
     28879      3979  TIP3      H2             -5.6226289902       -0.1146802230      -27.0802382574  TIP3      3843            0.0000000000
     28880      3980  TIP3      OH2            -4.1549575279        3.7286705061      -37.8257853221  TIP3      3844            0.0000000000
     28881      3980  TIP3      H1             -4.0984797142        3.8640187965      -38.7884043774  TIP3      3844            0.0000000000
     28882      3980  TIP3      H2             -3.9772591164        4.6208708010      -37.4616409175  TIP3      3844            0.0000000000
     28883      3981  TIP3      OH2            -9.9122406919        2.5594356054      -35.8198146862  TIP3      3845            0.0000000000
     28884      3981  TIP3      H1             -9.7450748960        2.2102864227      -34.9143796863  TIP3      3845            0.0000000000
     28885      3981  TIP3      H2            -10.5779109809        1.9170779950      -36.1561022732  TIP3      3845            0.0000000000
     28886      3982  TIP3      OH2            -0.7729796887        2.9275086450      -40.9729284513  TIP3      3846            0.0000000000
     28887      3982  TIP3      H1             -0.1541157329        2.2092434440      -41.2157108376  TIP3      3846            0.0000000000
     28888      3982  TIP3      H2             -0.2499352040        3.4651793153      -40.3343438431  TIP3      3846            0.0000000000
     28889      3983  TIP3      OH2            -1.3833072109        3.1380545042      -37.2741393411  TIP3      3847            0.0000000000
     28890      3983  TIP3      H1             -2.3335272889        2.9941989473      -37.4376766753  TIP3      3847            0.0000000000
     28891      3983  TIP3      H2             -1.1466354541        2.4153283932      -36.6529816391  TIP3      3847            0.0000000000
     28892      3984  TIP3      OH2             1.1917230758       -8.4489663723      -25.3700331590  TIP3      3848            0.0000000000
     28893      3984  TIP3      H1              0.7850340433       -7.9869535131      -26.1256048051  TIP3      3848            0.0000000000
     28894      3984  TIP3      H2              1.0683315059       -9.3818706280      -25.6323617043  TIP3      3848            0.0000000000
     28895      3985  TIP3      OH2           -10.9870011979       -1.6658712167      -28.0330534540  TIP3      3849            0.0000000000
     28896      3985  TIP3      H1            -11.1015077907       -1.9009476772      -27.0880720974  TIP3      3849            0.0000000000
     28897      3985  TIP3      H2            -11.8610644495       -1.9402577659      -28.4006608001  TIP3      3849            0.0000000000
     28898      3986  TIP3      OH2            -8.3476867503      -13.1392585279      -31.6822716844  TIP3      3850            0.0000000000
     28899      3986  TIP3      H1             -9.1917576614      -13.0015808455      -32.1497654591  TIP3      3850            0.0000000000
     28900      3986  TIP3      H2             -8.4840197820      -12.5744438455      -30.8887347340  TIP3      3850            0.0000000000
     28901      3987  TIP3      OH2            -3.4407859541      -13.7078587807      -28.2769836424  TIP3      3851            0.0000000000
     28902      3987  TIP3      H1             -3.1155996355      -14.0092024383      -27.4121567841  TIP3      3851            0.0000000000
     28903      3987  TIP3      H2             -4.4027161238      -13.5532470420      -28.1395186749  TIP3      3851            0.0000000000
     28904      3988  TIP3      OH2            -1.1951976257       -9.5026016108      -27.4762044959  TIP3      3852            0.0000000000
     28905      3988  TIP3      H1             -1.6274941575       -9.7805272680      -26.6271293054  TIP3      3852            0.0000000000
     28906      3988  TIP3      H2             -0.8707638482       -8.6083847839      -27.2726540911  TIP3      3852            0.0000000000
     28907      3989  TIP3      OH2             0.3912060622       -4.6126813625      -41.0370632480  TIP3      3853            0.0000000000
     28908      3989  TIP3      H1              0.3166531606       -4.4503126246      -41.9891308304  TIP3      3853            0.0000000000
     28909      3989  TIP3      H2              1.1288604684       -4.0420375931      -40.7751303766  TIP3      3853            0.0000000000
     28910      3990  TIP3      OH2            -3.9027351033      -10.6647606895      -41.1660589041  TIP3      3854            0.0000000000
     28911      3990  TIP3      H1             -4.3734517315      -10.7629918947      -40.3106954589  TIP3      3854            0.0000000000
     28912      3990  TIP3      H2             -3.8427701096      -11.5804575908      -41.4450514826  TIP3      3854            0.0000000000
     28913      3991  TIP3      OH2            -8.2916384507       -8.1914552426      -30.2447329948  TIP3      3855            0.0000000000
     28914      3991  TIP3      H1             -9.0917111243       -8.2355976465      -29.6840481965  TIP3      3855            0.0000000000
     28915      3991  TIP3      H2             -8.3531166767       -7.2679088667      -30.5925176995  TIP3      3855            0.0000000000
     28916      3992  TIP3      OH2            -8.1940850344       -8.5761468443      -35.4760112941  TIP3      3856            0.0000000000
     28917      3992  TIP3      H1             -9.1645285763       -8.7233266691      -35.5676640332  TIP3      3856            0.0000000000
     28918      3992  TIP3      H2             -7.8685453998       -8.8660538767      -36.3556469742  TIP3      3856            0.0000000000
     28919      3993  TIP3      OH2            -2.6072938336       -7.2819164194      -36.5625399219  TIP3      3857            0.0000000000
     28920      3993  TIP3      H1             -3.0193110452       -6.6631333335      -37.2150060324  TIP3      3857            0.0000000000
     28921      3993  TIP3      H2             -2.0262686985       -7.7740672730      -37.1771159986  TIP3      3857            0.0000000000
     28922      3994  TIP3      OH2            -3.8722506476       -6.8110004673      -25.6569764658  TIP3      3858            0.0000000000
     28923      3994  TIP3      H1             -4.3670924466       -7.6105841206      -25.3503514898  TIP3      3858            0.0000000000
     28924      3994  TIP3      H2             -3.0772804543       -6.9438285031      -25.0998354470  TIP3      3858            0.0000000000
     28925      3995  TIP3      OH2            -1.5442906192       -7.8151330293      -33.6262543704  TIP3      3859            0.0000000000
     28926      3995  TIP3      H1             -1.9673450020       -7.1047280972      -34.1524215444  TIP3      3859            0.0000000000
     28927      3995  TIP3      H2             -1.5878794434       -8.5710794708      -34.2504308914  TIP3      3859            0.0000000000
     28928      3996  TIP3      OH2           -10.6753839971       -8.2823574541      -28.9904924191  TIP3      3860            0.0000000000
     28929      3996  TIP3      H1            -10.6265524288       -7.7856175442      -28.1604530400  TIP3      3860            0.0000000000
     28930      3996  TIP3      H2            -11.0315316509       -9.1421760644      -28.6858596921  TIP3      3860            0.0000000000
     28931      3997  TIP3      OH2            -7.6000903770      -10.3088335525      -41.6894496443  TIP3      3861            0.0000000000
     28932      3997  TIP3      H1             -7.9946587959      -10.6925597255      -40.8909006560  TIP3      3861            0.0000000000
     28933      3997  TIP3      H2             -7.7921369709       -9.3679958577      -41.5938821851  TIP3      3861            0.0000000000
     28934      3998  TIP3      OH2           -13.9292770491      -10.9380684777      -34.4333368790  TIP3      3862            0.0000000000
     28935      3998  TIP3      H1            -13.2719003132      -10.9538828008      -33.7179808171  TIP3      3862            0.0000000000
     28936      3998  TIP3      H2            -13.4053988287      -10.6740165473      -35.2025230112  TIP3      3862            0.0000000000
     28937      3999  TIP3      OH2           -12.3534321389      -10.2227678996      -39.4468952212  TIP3      3863            0.0000000000
     28938      3999  TIP3      H1            -11.9947620931       -9.7855921962      -40.2463895508  TIP3      3863            0.0000000000
     28939      3999  TIP3      H2            -13.0898398919       -9.6150954558      -39.2270105967  TIP3      3863            0.0000000000
     28940      4000  TIP3      OH2            -2.7508520218       -6.3445156585      -29.7247286860  TIP3      3864            0.0000000000
     28941      4000  TIP3      H1             -2.1270618149       -6.9961197666      -30.1197643203  TIP3      3864            0.0000000000
     28942      4000  TIP3      H2             -3.2297509077       -6.9496249992      -29.1159548078  TIP3      3864            0.0000000000
     28943      4001  TIP3      OH2            -5.2509804663      -11.0152983345      -34.5780423704  TIP3      3865            0.0000000000
     28944      4001  TIP3      H1             -6.1681521139      -10.9447702593      -34.2702399312  TIP3      3865            0.0000000000
     28945      4001  TIP3      H2             -4.8590761135      -11.5626002035      -33.8687610385  TIP3      3865            0.0000000000
     28946      4002  TIP3      OH2           -10.8555006424       -9.3036042059      -35.5535390615  TIP3      3866            0.0000000000
     28947      4002  TIP3      H1            -11.4976814836       -8.9320085783      -36.1931932411  TIP3      3866            0.0000000000
     28948      4002  TIP3      H2            -10.7630734827      -10.2344895257      -35.8629003343  TIP3      3866            0.0000000000
     28949      4003  TIP3      OH2            -7.3951335806       -9.1411388259      -38.0411621723  TIP3      3867            0.0000000000
     28950      4003  TIP3      H1             -6.4666233497       -8.9955526700      -37.7389886315  TIP3      3867            0.0000000000
     28951      4003  TIP3      H2             -7.6296298691       -8.2919662001      -38.4425052165  TIP3      3867            0.0000000000
     28952      4004  TIP3      OH2            -1.3365785526      -11.3888801833      -31.5518193425  TIP3      3868            0.0000000000
     28953      4004  TIP3      H1             -1.8526058237      -11.4964740454      -30.7130602188  TIP3      3868            0.0000000000
     28954      4004  TIP3      H2             -1.6802878856      -12.1026065202      -32.1075541120  TIP3      3868            0.0000000000
     28955      4005  TIP3      OH2            -8.9563902759       -7.3586782397      -40.9026671992  TIP3      3869            0.0000000000
     28956      4005  TIP3      H1             -9.3435266092       -7.6573324141      -41.7447237217  TIP3      3869            0.0000000000
     28957      4005  TIP3      H2             -8.0132936691       -7.2654092642      -41.1384464180  TIP3      3869            0.0000000000
     28958      4006  TIP3      OH2             1.4016177082        4.4684598471      -24.8811081815  TIP3      3870            0.0000000000
     28959      4006  TIP3      H1              1.9942050252        5.0942262939      -25.3338696915  TIP3      3870            0.0000000000
     28960      4006  TIP3      H2              1.7896890633        4.5570865449      -23.9877250617  TIP3      3870            0.0000000000
     28961      4007  TIP3      OH2           -11.0724786235       -2.8286322687      -25.5313322521  TIP3      3871            0.0000000000
     28962      4007  TIP3      H1            -10.2415193407       -2.6604506371      -25.0683529452  TIP3      3871            0.0000000000
     28963      4007  TIP3      H2            -11.6213424819       -3.2419920084      -24.8455739616  TIP3      3871            0.0000000000
     28964      4008  TIP3      OH2            -5.0334639362       -7.7820086008      -33.4943755648  TIP3      3872            0.0000000000
     28965      4008  TIP3      H1             -4.1682235648       -8.1863729089      -33.6346111990  TIP3      3872            0.0000000000
     28966      4008  TIP3      H2             -5.4772213724       -8.4558250025      -32.9326450316  TIP3      3872            0.0000000000
     28967      4009  TIP3      OH2            -9.9467596038      -11.8121355359      -36.2750886289  TIP3      3873            0.0000000000
     28968      4009  TIP3      H1            -10.4550904308      -12.5451871779      -35.8543019238  TIP3      3873            0.0000000000
     28969      4009  TIP3      H2             -9.5503884810      -12.2403073141      -37.0531619869  TIP3      3873            0.0000000000
     28970      4010  TIP3      OH2            -6.3684966652       -9.5407366129      -31.4494580048  TIP3      3874            0.0000000000
     28971      4010  TIP3      H1             -7.1998189243       -9.1623294225      -31.0764816990  TIP3      3874            0.0000000000
     28972      4010  TIP3      H2             -5.7336411356       -9.2065678675      -30.7981306346  TIP3      3874            0.0000000000
     28973      4011  TIP3      OH2            -5.2263060386       -3.4464041339      -38.1445555662  TIP3      3875            0.0000000000
     28974      4011  TIP3      H1             -5.9664585757       -3.9490505585      -38.5678387183  TIP3      3875            0.0000000000
     28975      4011  TIP3      H2             -5.7104464821       -3.0538184262      -37.3779490085  TIP3      3875            0.0000000000
     28976      4012  TIP3      OH2             1.9022713140       -3.5335198217      -29.7913404145  TIP3      3876            0.0000000000
     28977      4012  TIP3      H1              2.3934291989       -3.0581674812      -30.5002174352  TIP3      3876            0.0000000000
     28978      4012  TIP3      H2              1.0792832681       -3.7810206519      -30.2551705529  TIP3      3876            0.0000000000
     28979      4013  TIP3      OH2            -1.5454562458      -10.3172049178      -39.8244850092  TIP3      3877            0.0000000000
     28980      4013  TIP3      H1             -2.3362658049      -10.3075805334      -40.3932563989  TIP3      3877            0.0000000000
     28981      4013  TIP3      H2             -1.3922163329       -9.3645573228      -39.6612235559  TIP3      3877            0.0000000000
     28982      4014  TIP3      OH2            -4.3010549447       -2.4867133717      -27.6888925780  TIP3      3878            0.0000000000
     28983      4014  TIP3      H1             -4.3480548341       -2.6782970899      -26.7406664974  TIP3      3878            0.0000000000
     28984      4014  TIP3      H2             -4.5032731276       -1.5212843447      -27.6724099384  TIP3      3878            0.0000000000
     28985      4015  TIP3      OH2            -1.0489534526       -8.0782879760      -38.6159734124  TIP3      3879            0.0000000000
     28986      4015  TIP3      H1             -0.2514162429       -8.4328036470      -38.1695633800  TIP3      3879            0.0000000000
     28987      4015  TIP3      H2             -0.8669904403       -7.1169255974      -38.6410232451  TIP3      3879            0.0000000000
     28988      4016  TIP3      OH2           -10.1750499679       -3.8556620638      -33.0595089825  TIP3      3880            0.0000000000
     28989      4016  TIP3      H1             -9.8420252208       -4.0075866409      -33.9672665994  TIP3      3880            0.0000000000
     28990      4016  TIP3      H2             -9.6968022740       -4.5356454256      -32.5589542818  TIP3      3880            0.0000000000
     28991      4017  TIP3      OH2            -3.5343371932       -1.9707678455      -39.5697250415  TIP3      3881            0.0000000000
     28992      4017  TIP3      H1             -3.8801637233       -1.0976125949      -39.2836475485  TIP3      3881            0.0000000000
     28993      4017  TIP3      H2             -4.1386725933       -2.5830386496      -39.0903084343  TIP3      3881            0.0000000000
     28994      4018  TIP3      OH2           -13.0955905182       -5.4287887677      -27.9450502242  TIP3      3882            0.0000000000
     28995      4018  TIP3      H1            -13.2942002631       -5.8888726381      -27.1045155152  TIP3      3882            0.0000000000
     28996      4018  TIP3      H2            -13.7734609059       -5.7986506224      -28.5351180244  TIP3      3882            0.0000000000
     28997      4019  TIP3      OH2            -6.2248935608       -5.6034952002      -25.3328127885  TIP3      3883            0.0000000000
     28998      4019  TIP3      H1             -6.7386101881       -6.2979541186      -25.7863091862  TIP3      3883            0.0000000000
     28999      4019  TIP3      H2             -5.3132606474       -5.9527785422      -25.4678771769  TIP3      3883            0.0000000000
     29000      4020  TIP3      OH2            -1.2343852770       -0.3780916003      -27.2356783010  TIP3      3884            0.0000000000
     29001      4020  TIP3      H1             -2.0427971325       -0.1296458706      -27.7073357399  TIP3      3884            0.0000000000
     29002      4020  TIP3      H2             -1.3894051772        0.0543005774      -26.3694116184  TIP3      3884            0.0000000000
     29003      4021  TIP3      OH2             4.1210749490       -8.6682353718      -38.8103145109  TIP3      3885            0.0000000000
     29004      4021  TIP3      H1              3.7142395141       -8.7443201525      -39.7056225654  TIP3      3885            0.0000000000
     29005      4021  TIP3      H2              4.3711786210       -7.7360274198      -38.8033775849  TIP3      3885            0.0000000000
     29006      4022  TIP3      OH2             4.4499700931       -2.0903682813      -26.3683138281  TIP3      3886            0.0000000000
     29007      4022  TIP3      H1              3.5275364380       -2.1394325565      -26.7139218605  TIP3      3886            0.0000000000
     29008      4022  TIP3      H2              4.9564311594       -2.3547528273      -27.1677863982  TIP3      3886            0.0000000000
     29009      4023  TIP3      OH2             2.3922027512        0.2613893978      -38.7809826587  TIP3      3887            0.0000000000
     29010      4023  TIP3      H1              1.8740793738       -0.4366078321      -38.3621143438  TIP3      3887            0.0000000000
     29011      4023  TIP3      H2              2.7483292719       -0.1601779848      -39.5750147101  TIP3      3887            0.0000000000
     29012      4024  TIP3      OH2            -0.3426752419       -4.4812612077      -31.7330934466  TIP3      3888            0.0000000000
     29013      4024  TIP3      H1             -1.2012900692       -4.8540552518      -32.0058923010  TIP3      3888            0.0000000000
     29014      4024  TIP3      H2              0.2897603742       -4.9807686778      -32.2927777175  TIP3      3888            0.0000000000
     29015      4025  TIP3      OH2            -8.0464572493       -0.2923308847      -35.3096884508  TIP3      3889            0.0000000000
     29016      4025  TIP3      H1             -7.4774985291        0.4946078815      -35.2935066799  TIP3      3889            0.0000000000
     29017      4025  TIP3      H2             -8.8154349479        0.0382406287      -35.7961640856  TIP3      3889            0.0000000000
     29018      4026  TIP3      OH2           -12.0982978520       -4.8184205527      -41.6229730708  TIP3      3890            0.0000000000
     29019      4026  TIP3      H1            -11.6440448863       -4.6329166436      -40.7758990602  TIP3      3890            0.0000000000
     29020      4026  TIP3      H2            -13.0007997062       -5.0246355762      -41.2833352806  TIP3      3890            0.0000000000
     29021      4027  TIP3      OH2            -6.8424001456       -2.6334408045      -35.9878842411  TIP3      3891            0.0000000000
     29022      4027  TIP3      H1             -7.2724052283       -1.7616399419      -35.8360213642  TIP3      3891            0.0000000000
     29023      4027  TIP3      H2             -7.3573530798       -3.2484559977      -35.4316724987  TIP3      3891            0.0000000000
     29024      4028  TIP3      OH2            -5.9456815475        1.6395260661      -29.2149666788  TIP3      3892            0.0000000000
     29025      4028  TIP3      H1             -5.3558997553        2.2665483266      -29.6892723296  TIP3      3892            0.0000000000
     29026      4028  TIP3      H2             -5.3257057104        1.2539618980      -28.5587965093  TIP3      3892            0.0000000000
     29027      4029  TIP3      OH2            -7.3728362983        2.3339351269      -36.6302469307  TIP3      3893            0.0000000000
     29028      4029  TIP3      H1             -8.3056880080        2.4750249514      -36.3453660853  TIP3      3893            0.0000000000
     29029      4029  TIP3      H2             -6.9438088000        3.0991392074      -36.2154548640  TIP3      3893            0.0000000000
     29030      4030  TIP3      OH2            -2.7679761420       -2.5855161696      -30.0026894209  TIP3      3894            0.0000000000
     29031      4030  TIP3      H1             -3.1277625217       -2.7349220613      -29.0926792058  TIP3      3894            0.0000000000
     29032      4030  TIP3      H2             -2.4529060210       -3.4813064745      -30.2356904414  TIP3      3894            0.0000000000
     29033      4031  TIP3      OH2            -0.1843509938       -1.1431729622      -40.5193191630  TIP3      3895            0.0000000000
     29034      4031  TIP3      H1             -0.0055166212       -1.5802358264      -39.6581343982  TIP3      3895            0.0000000000
     29035      4031  TIP3      H2             -1.0388830169       -1.5355714043      -40.7253439997  TIP3      3895            0.0000000000
     29036      4032  TIP3      OH2             0.4741162419        2.0834308318      -27.7662799714  TIP3      3896            0.0000000000
     29037      4032  TIP3      H1             -0.4164814711        1.7097718374      -27.9207368274  TIP3      3896            0.0000000000
     29038      4032  TIP3      H2              0.5052843364        2.8085701394      -28.4408243135  TIP3      3896            0.0000000000
     29039      4033  TIP3      OH2             4.2976615102        2.8428979702      -40.3641830373  TIP3      3897            0.0000000000
     29040      4033  TIP3      H1              4.4425826496        3.2293893705      -41.2463033375  TIP3      3897            0.0000000000
     29041      4033  TIP3      H2              3.7643136936        3.5349200081      -39.9132283665  TIP3      3897            0.0000000000
     29042      4034  TIP3      OH2           -11.1348141145      -10.9495782194      -28.0150511288  TIP3      3898            0.0000000000
     29043      4034  TIP3      H1            -11.9303881134      -10.5397055069      -27.6494463612  TIP3      3898            0.0000000000
     29044      4034  TIP3      H2            -10.9447770771      -11.6020886897      -27.3118972642  TIP3      3898            0.0000000000
     29045      4035  TIP3      OH2             0.7142673228       -2.6556709612      -38.4484384278  TIP3      3899            0.0000000000
     29046      4035  TIP3      H1              0.4888226505       -3.4673108888      -37.9540215500  TIP3      3899            0.0000000000
     29047      4035  TIP3      H2              1.6915440849       -2.7598813914      -38.4696315245  TIP3      3899            0.0000000000
     29048      4036  TIP3      OH2           -11.8250091656        1.0454522609      -29.8483327889  TIP3      3900            0.0000000000
     29049      4036  TIP3      H1            -11.1606764915        0.3479932654      -29.7256770849  TIP3      3900            0.0000000000
     29050      4036  TIP3      H2            -11.7257390875        1.5299459306      -29.0110595026  TIP3      3900            0.0000000000
     29051      4037  TIP3      OH2            -7.3370062435       -0.9836149397      -39.7727729040  TIP3      3901            0.0000000000
     29052      4037  TIP3      H1             -6.8197587239       -1.5723817078      -39.2055713433  TIP3      3901            0.0000000000
     29053      4037  TIP3      H2             -7.1133447934       -0.0867639223      -39.4330413522  TIP3      3901            0.0000000000
     29054      4038  TIP3      OH2           -10.9682243568       -3.6731951255      -39.3134733888  TIP3      3902            0.0000000000
     29055      4038  TIP3      H1            -11.6166831220       -3.2614416008      -38.6990349365  TIP3      3902            0.0000000000
     29056      4038  TIP3      H2            -10.4964862908       -2.9051088069      -39.6872583458  TIP3      3902            0.0000000000
     29057      4039  TIP3      OH2            -2.5964057409      -11.1019897941      -29.1940024486  TIP3      3903            0.0000000000
     29058      4039  TIP3      H1             -2.0047868285      -10.5384805556      -28.6521419041  TIP3      3903            0.0000000000
     29059      4039  TIP3      H2             -3.0013426728      -11.6800640395      -28.5217137215  TIP3      3903            0.0000000000
     29060      4040  TIP3      OH2            -2.1328602874      -11.2759900620      -37.4135036515  TIP3      3904            0.0000000000
     29061      4040  TIP3      H1             -1.7928854707      -10.9238278818      -38.2686288849  TIP3      3904            0.0000000000
     29062      4040  TIP3      H2             -1.6326436313      -10.7829602490      -36.7338445397  TIP3      3904            0.0000000000
     29063      4041  TIP3      OH2            -4.2253539086        0.6962296520      -39.0382225203  TIP3      3905            0.0000000000
     29064      4041  TIP3      H1             -5.0852254584        1.1533074547      -39.1415321304  TIP3      3905            0.0000000000
     29065      4041  TIP3      H2             -3.7362467350        1.0000006366      -39.8216493034  TIP3      3905            0.0000000000
     29066      4042  TIP3      OH2            -4.9885047860       -9.3598996975      -36.7926961264  TIP3      3906            0.0000000000
     29067      4042  TIP3      H1             -4.2646163392       -8.7390812499      -36.5988345007  TIP3      3906            0.0000000000
     29068      4042  TIP3      H2             -5.0245778364       -9.8888097174      -35.9646124072  TIP3      3906            0.0000000000
     29069      4043  TIP3      OH2            -3.9310355033       -8.1113827132      -28.0329133626  TIP3      3907            0.0000000000
     29070      4043  TIP3      H1             -4.0374464535       -7.4897875860      -27.2752110568  TIP3      3907            0.0000000000
     29071      4043  TIP3      H2             -3.7706091266       -8.9477304396      -27.5781139774  TIP3      3907            0.0000000000
     29072      4044  TIP3      OH2            -4.0426457915      -12.8604576941      -36.4684583151  TIP3      3908            0.0000000000
     29073      4044  TIP3      H1             -4.4607608053      -12.2904061504      -35.7915863260  TIP3      3908            0.0000000000
     29074      4044  TIP3      H2             -3.2717142830      -12.2957035585      -36.7281802996  TIP3      3908            0.0000000000
     29075      4045  TIP3      OH2            -6.7886533208        1.6883912293      -39.2501235616  TIP3      3909            0.0000000000
     29076      4045  TIP3      H1             -6.6409442091        2.5679251580      -39.6469642821  TIP3      3909            0.0000000000
     29077      4045  TIP3      H2             -7.1914343001        1.9597303311      -38.3989167749  TIP3      3909            0.0000000000
     29078      4046  TIP3      OH2            -8.5171408952      -11.6243094954      -39.0555838624  TIP3      3910            0.0000000000
     29079      4046  TIP3      H1             -8.4147676260      -10.7444942784      -38.6488579744  TIP3      3910            0.0000000000
     29080      4046  TIP3      H2             -7.6265177119      -12.0044648309      -38.9545082041  TIP3      3910            0.0000000000
     29081      4047  TIP3      OH2             1.5994725035      -10.7272823461      -26.7507420129  TIP3      3911            0.0000000000
     29082      4047  TIP3      H1              0.7324449456      -10.9998670546      -27.0773141995  TIP3      3911            0.0000000000
     29083      4047  TIP3      H2              2.0308808894      -10.4988154215      -27.5926864620  TIP3      3911            0.0000000000
     29084      4048  TIP3      OH2             0.8960273109       -6.3854143442      -33.3807996885  TIP3      3912            0.0000000000
     29085      4048  TIP3      H1              0.0287740875       -6.8182483462      -33.3118956928  TIP3      3912            0.0000000000
     29086      4048  TIP3      H2              1.4319436301       -6.9919282392      -32.8189203321  TIP3      3912            0.0000000000
     29087      4049  TIP3      OH2           -10.0274753153       -1.0369614914      -40.8164955036  TIP3      3913            0.0000000000
     29088      4049  TIP3      H1             -9.1830488559       -0.8448412455      -40.3541522813  TIP3      3913            0.0000000000
     29089      4049  TIP3      H2             -9.7247518438       -1.6931238389      -41.4631336096  TIP3      3913            0.0000000000
     29090      4050  TIP3      OH2           -11.9815230184       -8.0258238193      -41.3077167695  TIP3      3914            0.0000000000
     29091      4050  TIP3      H1            -11.2258555873       -7.4805853886      -41.0636161510  TIP3      3914            0.0000000000
     29092      4050  TIP3      H2            -12.5882673637       -7.3711385519      -41.6728642213  TIP3      3914            0.0000000000
     29093      4051  TIP3      OH2             1.3074101555        2.3681694782      -31.6102886997  TIP3      3915            0.0000000000
     29094      4051  TIP3      H1              1.1738251281        2.9152759579      -32.4034255664  TIP3      3915            0.0000000000
     29095      4051  TIP3      H2              2.2879758065        2.3135887562      -31.5934635268  TIP3      3915            0.0000000000
     29096      4052  TIP3      OH2           -11.0180816063      -13.5661434489      -32.1684593957  TIP3      3916            0.0000000000
     29097      4052  TIP3      H1            -11.1522520296      -13.8197932825      -33.1031776814  TIP3      3916            0.0000000000
     29098      4052  TIP3      H2            -11.2716661475      -14.4178460542      -31.7524189028  TIP3      3916            0.0000000000
     29099      4053  TIP3      OH2           -11.9646013958        0.9724166435      -36.1293294487  TIP3      3917            0.0000000000
     29100      4053  TIP3      H1            -12.5033671477        1.4462204405      -35.4646305429  TIP3      3917            0.0000000000
     29101      4053  TIP3      H2            -12.4494229807        1.1519871694      -36.9663995345  TIP3      3917            0.0000000000
     29102      4054  TIP3      OH2           -13.1108504085        3.2410646513      -25.3757613811  TIP3      3918            0.0000000000
     29103      4054  TIP3      H1            -12.4502540175        2.9078174515      -24.7253527088  TIP3      3918            0.0000000000
     29104      4054  TIP3      H2            -13.5576402276        2.4036277021      -25.6049439129  TIP3      3918            0.0000000000
     29105      4055  TIP3      OH2            -9.0429695226        2.4685988706      -24.1433011704  TIP3      3919            0.0000000000
     29106      4055  TIP3      H1             -8.2335249635        2.4291080200      -23.6072491912  TIP3      3919            0.0000000000
     29107      4055  TIP3      H2             -8.8660833892        1.8220781836      -24.8671931000  TIP3      3919            0.0000000000
     29108      4056  TIP3      OH2            -1.6791323040        1.1253628780      -24.9295692241  TIP3      3920            0.0000000000
     29109      4056  TIP3      H1             -1.9817225661        0.2633734544      -24.5452779374  TIP3      3920            0.0000000000
     29110      4056  TIP3      H2             -1.0141272422        1.4209962999      -24.2655238596  TIP3      3920            0.0000000000
     29111      4057  TIP3      OH2             0.9690103707        0.7824327573      -42.1979715939  TIP3      3921            0.0000000000
     29112      4057  TIP3      H1              0.5746461294        0.1430560141      -41.5633543577  TIP3      3921            0.0000000000
     29113      4057  TIP3      H2              1.9217150122        0.6695524073      -42.0377128445  TIP3      3921            0.0000000000
     29114      4058  TIP3      OH2           -13.4479116502       -3.3748086043      -24.1139383966  TIP3      3922            0.0000000000
     29115      4058  TIP3      H1            -13.3975058435       -4.3429399309      -24.2008106616  TIP3      3922            0.0000000000
     29116      4058  TIP3      H2            -13.6426856250       -3.1011612025      -25.0301542416  TIP3      3922            0.0000000000
     29117      4059  TIP3      OH2            -8.5328436152       -3.1692937862      -42.0380563908  TIP3      3923            0.0000000000
     29118      4059  TIP3      H1             -7.8604526591       -3.0522216417      -41.3456053587  TIP3      3923            0.0000000000
     29119      4059  TIP3      H2             -7.9584766940       -3.4909056975      -42.7678327427  TIP3      3923            0.0000000000
     29120      4060  TIP3      OH2            -6.2134941288       -2.8008736229      -25.0934722579  TIP3      3924            0.0000000000
     29121      4060  TIP3      H1             -6.4179176557       -2.2720008683      -25.8980766848  TIP3      3924            0.0000000000
     29122      4060  TIP3      H2             -6.1897593128       -3.7446163629      -25.3754143322  TIP3      3924            0.0000000000
     29123      4061  TIP3      OH2            -0.7105391739       -3.1614816868      -27.4746430642  TIP3      3925            0.0000000000
     29124      4061  TIP3      H1              0.0573783357       -2.6430279928      -27.7819841819  TIP3      3925            0.0000000000
     29125      4061  TIP3      H2             -1.1972413866       -2.4225764042      -27.0718972040  TIP3      3925            0.0000000000
     29126      4062  TIP3      OH2           -12.3834966681       -6.0647023433      -24.7628023129  TIP3      3926            0.0000000000
     29127      4062  TIP3      H1            -12.4853334661       -6.9731020144      -24.4229133713  TIP3      3926            0.0000000000
     29128      4062  TIP3      H2            -11.8548218573       -5.6990236156      -24.0203129935  TIP3      3926            0.0000000000
     29129      4063  TIP3      OH2            -7.2034238983       -4.7482654431      -39.4705951052  TIP3      3927            0.0000000000
     29130      4063  TIP3      H1             -8.0162244123       -5.1200993998      -39.0668165836  TIP3      3927            0.0000000000
     29131      4063  TIP3      H2             -7.1017800205       -5.3302029630      -40.2430457028  TIP3      3927            0.0000000000
     29132      4064  TIP3      OH2            -8.1369210638       -6.8567895506      -27.0508754445  TIP3      3928            0.0000000000
     29133      4064  TIP3      H1             -8.8462720583       -6.2085932268      -27.2276089434  TIP3      3928            0.0000000000
     29134      4064  TIP3      H2             -7.4678471546       -6.5178536731      -27.6834882217  TIP3      3928            0.0000000000
     29135      4065  TIP3      OH2            -6.2496133326       -6.6476857478      -41.5257215838  TIP3      3929            0.0000000000
     29136      4065  TIP3      H1             -6.1187735928       -6.2977595433      -42.4190671100  TIP3      3929            0.0000000000
     29137      4065  TIP3      H2             -5.3281513246       -6.6158777131      -41.1946788001  TIP3      3929            0.0000000000
     29138      4066  TIP3      OH2            -2.4030040467       -3.8083380707      -24.1408044450  TIP3      3930            0.0000000000
     29139      4066  TIP3      H1             -2.0146920913       -4.2600806691      -24.9108079294  TIP3      3930            0.0000000000
     29140      4066  TIP3      H2             -1.8514053647       -4.1549466865      -23.4224496872  TIP3      3930            0.0000000000
     29141      4067  TIP3      OH2             3.1399015210       -4.2124446540      -42.7085108638  TIP3      3931            0.0000000000
     29142      4067  TIP3      H1              2.6783008436       -4.4231301938      -43.5336165380  TIP3      3931            0.0000000000
     29143      4067  TIP3      H2              3.2744386905       -3.2592536930      -42.8119827905  TIP3      3931            0.0000000000
     29144      4068  TIP3      OH2            -8.0457181761       -9.6662106771      -26.8008860740  TIP3      3932            0.0000000000
     29145      4068  TIP3      H1             -7.4038482898       -9.9883736712      -27.4600548036  TIP3      3932            0.0000000000
     29146      4068  TIP3      H2             -8.1856296459       -8.7339817973      -27.0573336363  TIP3      3932            0.0000000000
     29147      4069  TIP3      OH2            -6.6527339677      -10.9929791433      -28.7491026266  TIP3      3933            0.0000000000
     29148      4069  TIP3      H1             -5.9561541231      -10.7645493234      -29.3810638697  TIP3      3933            0.0000000000
     29149      4069  TIP3      H2             -7.4631648372      -10.9641041138      -29.3058377791  TIP3      3933            0.0000000000
     29150      4070  TIP3      OH2            -6.1111631740       -5.5568634431      -28.5217372325  TIP3      3934            0.0000000000
     29151      4070  TIP3      H1             -5.1624327797       -5.4608672702      -28.6548288353  TIP3      3934            0.0000000000
     29152      4070  TIP3      H2             -6.4673460133       -4.8529792800      -29.0997820866  TIP3      3934            0.0000000000
     29153      4071  TIP3      OH2            -1.8681130806       -7.8804920396      -24.1857083808  TIP3      3935            0.0000000000
     29154      4071  TIP3      H1             -2.3259391652       -8.0123072552      -23.3094063305  TIP3      3935            0.0000000000
     29155      4071  TIP3      H2             -1.0267360952       -7.5308705210      -23.8783041396  TIP3      3935            0.0000000000
     29156      4072  TIP3      OH2             0.1140695409       -4.6311233193      -25.2903549264  TIP3      3936            0.0000000000
     29157      4072  TIP3      H1             -0.1342170153       -4.2033160760      -26.1413866610  TIP3      3936            0.0000000000
     29158      4072  TIP3      H2              1.0031274675       -4.9604017454      -25.5207468654  TIP3      3936            0.0000000000
     29159      4073  TIP3      OH2            -9.3359937233       -8.4052789777      -24.3392114822  TIP3      3937            0.0000000000
     29160      4073  TIP3      H1            -10.1029777359       -8.9208889895      -24.6606686073  TIP3      3937            0.0000000000
     29161      4073  TIP3      H2             -8.6941648242       -8.6533021313      -25.0269696596  TIP3      3937            0.0000000000
     29162      4074  TIP3      OH2            -6.1146994547      -13.6516999058      -28.7100418623  TIP3      3938            0.0000000000
     29163      4074  TIP3      H1             -6.4714363570      -12.7412473008      -28.5739025424  TIP3      3938            0.0000000000
     29164      4074  TIP3      H2             -6.8841938186      -14.1079084086      -29.0893630983  TIP3      3938            0.0000000000
     29165      4075  TIP3      OH2            -5.1026828215       -9.1457453956      -24.8745324635  TIP3      3939            0.0000000000
     29166      4075  TIP3      H1             -4.9390157808       -9.0384887448      -23.9155563981  TIP3      3939            0.0000000000
     29167      4075  TIP3      H2             -5.6601604376       -9.9496041553      -24.8684238346  TIP3      3939            0.0000000000
     29168      4076  TIP3      OH2            -2.5917710694      -10.4884300488      -25.4824332573  TIP3      3940            0.0000000000
     29169      4076  TIP3      H1             -3.3572963613      -10.0371676312      -25.0914483564  TIP3      3940            0.0000000000
     29170      4076  TIP3      H2             -2.0755910317      -10.7557910599      -24.7008835931  TIP3      3940            0.0000000000
     29171      4077  TIP3      OH2            -0.8618292321      -11.2789275432      -23.4842828479  TIP3      3941            0.0000000000
     29172      4077  TIP3      H1             -0.9131329574      -12.2610207930      -23.5697677534  TIP3      3941            0.0000000000
     29173      4077  TIP3      H2             -1.3660993773      -11.0862639128      -22.6820187034  TIP3      3941            0.0000000000
     29174      4078  TIP3      OH2           -11.2557407889      -10.3005617951      -24.9627036541  TIP3      3942            0.0000000000
     29175      4078  TIP3      H1            -11.2755945982      -11.2466662610      -25.1932181100  TIP3      3942            0.0000000000
     29176      4078  TIP3      H2            -11.6130583931      -10.2448269827      -24.0632099223  TIP3      3942            0.0000000000
     29177      4079  TIP3      OH2            -6.4911838076      -14.2732109244      -25.9647556669  TIP3      3943            0.0000000000
     29178      4079  TIP3      H1             -5.7522239811      -14.8724258825      -25.7499202802  TIP3      3943            0.0000000000
     29179      4079  TIP3      H2             -6.4224293724      -14.2648845654      -26.9408474570  TIP3      3943            0.0000000000
     29180      4080  TIP3      OH2            -6.3153004902      -11.7480788769      -24.5324710755  TIP3      3944            0.0000000000
     29181      4080  TIP3      H1             -6.3665674653      -12.4851588050      -25.1692149856  TIP3      3944            0.0000000000
     29182      4080  TIP3      H2             -6.7086920943      -12.1036080567      -23.7260927804  TIP3      3944            0.0000000000
     29183      4081  TIP3      OH2            -6.5999446692        4.2144376466      -40.5382890099  TIP3      3945            0.0000000000
     29184      4081  TIP3      H1             -5.6904415640        4.2911394520      -40.2241501281  TIP3      3945            0.0000000000
     29185      4081  TIP3      H2             -6.4902565058        4.3959683896      -41.4867472106  TIP3      3945            0.0000000000
     29186      4082  TIP3      OH2           -13.0991845448       -1.9995479410      -41.0983526017  TIP3      3946            0.0000000000
     29187      4082  TIP3      H1            -12.2499062737       -1.5664446800      -41.2611124820  TIP3      3946            0.0000000000
     29188      4082  TIP3      H2            -13.5093695569       -1.9726652872      -41.9763375834  TIP3      3946            0.0000000000
     29189      4083  TIP3      OH2           -14.0125471090        4.0636310944      -35.8667311261  TIP3      3947            0.0000000000
     29190      4083  TIP3      H1            -14.6273101099        3.5540234472      -36.4374802887  TIP3      3947            0.0000000000
     29191      4083  TIP3      H2            -13.8320959449        3.3747835699      -35.1870717680  TIP3      3947            0.0000000000
     29192      4084  TIP3      OH2           -13.2473730727        2.2279545756      -34.0705090968  TIP3      3948            0.0000000000
     29193      4084  TIP3      H1            -13.6526941742        1.4512972882      -33.6425248917  TIP3      3948            0.0000000000
     29194      4084  TIP3      H2            -12.6210759654        2.5646050640      -33.3816590829  TIP3      3948            0.0000000000
     29195      4085  TIP3      OH2             4.0363672124        2.6905323904      -31.8443663173  TIP3      3949            0.0000000000
     29196      4085  TIP3      H1              4.5281114819        2.8643943959      -31.0266331400  TIP3      3949            0.0000000000
     29197      4085  TIP3      H2              3.7641016886        3.5774251719      -32.1320557601  TIP3      3949            0.0000000000
     29198      4086  TIP3      OH2             3.9491414448        2.4219203824      -28.4023395570  TIP3      3950            0.0000000000
     29199      4086  TIP3      H1              3.5282936637        1.7183124163      -28.9480313837  TIP3      3950            0.0000000000
     29200      4086  TIP3      H2              4.1846899118        1.8687670907      -27.6345924901  TIP3      3950            0.0000000000
     29201      4087  TIP3      OH2             2.9756537694       -1.2458880809      -23.4458164821  TIP3      3951            0.0000000000
     29202      4087  TIP3      H1              2.1288825921       -1.2833222163      -22.9563989838  TIP3      3951            0.0000000000
     29203      4087  TIP3      H2              2.7325769743       -0.7228629492      -24.2170174661  TIP3      3951            0.0000000000
     29204      4088  TIP3      OH2             3.3617556910       -3.4258567792      -38.5183469827  TIP3      3952            0.0000000000
     29205      4088  TIP3      H1              4.2246318360       -3.1066183669      -38.1664538285  TIP3      3952            0.0000000000
     29206      4088  TIP3      H2              3.1801489201       -4.1693279800      -37.9047205845  TIP3      3952            0.0000000000
     29207      4089  TIP3      OH2             4.1462373325       -5.6328453324      -36.4667691401  TIP3      3953            0.0000000000
     29208      4089  TIP3      H1              3.4215693154       -6.2633048437      -36.2595801010  TIP3      3953            0.0000000000
     29209      4089  TIP3      H2              4.4988580754       -5.4145396868      -35.5803740102  TIP3      3953            0.0000000000
     29210      4090  TIP3      OH2             3.5748768433       -2.5870303709      -31.6848020292  TIP3      3954            0.0000000000
     29211      4090  TIP3      H1              4.4311868046       -3.0697580239      -31.7223278113  TIP3      3954            0.0000000000
     29212      4090  TIP3      H2              3.7835035831       -1.8065025009      -32.2206884046  TIP3      3954            0.0000000000
     29213      4091  TIP3      OH2             2.4347014969        0.2983895607      -29.2183955344  TIP3      3955            0.0000000000
     29214      4091  TIP3      H1              1.7032966096        0.8320604877      -28.8459181129  TIP3      3955            0.0000000000
     29215      4091  TIP3      H2              2.0444965430       -0.0295371932      -30.0645597247  TIP3      3955            0.0000000000
     29216      4092  TIP3      OH2             3.9716559291       -5.2999235316      -40.3904788013  TIP3      3956            0.0000000000
     29217      4092  TIP3      H1              3.5669530099       -4.9320503679      -41.2054240368  TIP3      3956            0.0000000000
     29218      4092  TIP3      H2              3.9799499895       -4.5072797258      -39.8082794814  TIP3      3956            0.0000000000
     29219      4093  TIP3      OH2             3.2042943714       -8.8228224948      -41.4593294255  TIP3      3957            0.0000000000
     29220      4093  TIP3      H1              3.3645091516       -8.3967826814      -42.3180044993  TIP3      3957            0.0000000000
     29221      4093  TIP3      H2              2.2497856712       -8.9587924601      -41.4933462514  TIP3      3957            0.0000000000
     29222      4094  TIP3      OH2             2.2953598278       -7.4068067150      -35.5489988291  TIP3      3958            0.0000000000
     29223      4094  TIP3      H1              1.6920189013       -8.1271035941      -35.7875886748  TIP3      3958            0.0000000000
     29224      4094  TIP3      H2              1.8654031682       -7.0481767886      -34.7408867503  TIP3      3958            0.0000000000
     29225      4095  TIP3      OH2           -13.2863550380       -4.5770285229      -31.4787537571  TIP3      3959            0.0000000000
     29226      4095  TIP3      H1            -13.3429082119       -4.9708797300      -32.3804142843  TIP3      3959            0.0000000000
     29227      4095  TIP3      H2            -12.4005056687       -4.9395905040      -31.2363930144  TIP3      3959            0.0000000000
     29228      4096  TIP3      OH2             2.9046313124       -4.8986567247      -26.1886682964  TIP3      3960            0.0000000000
     29229      4096  TIP3      H1              3.2756533677       -5.8097264487      -26.0442017200  TIP3      3960            0.0000000000
     29230      4096  TIP3      H2              3.5507623152       -4.4880842757      -26.7807349502  TIP3      3960            0.0000000000
     29231      4097  TIP3      OH2             3.7117734704       -7.2615523888      -25.4293548567  TIP3      3961            0.0000000000
     29232      4097  TIP3      H1              2.8835970250       -7.7768875122      -25.3378190809  TIP3      3961            0.0000000000
     29233      4097  TIP3      H2              4.3979972963       -7.9681169046      -25.4450511074  TIP3      3961            0.0000000000
     29234      4098  TIP3      OH2             0.9171161228       -9.3096850918      -37.1367818673  TIP3      3962            0.0000000000
     29235      4098  TIP3      H1              1.0654517405      -10.2818638958      -37.1029760455  TIP3      3962            0.0000000000
     29236      4098  TIP3      H2              1.7536406192       -9.0375807760      -37.5362596431  TIP3      3962            0.0000000000
     29237      4099  TIP3      OH2             2.1462569401       -8.3798832525      -31.9015622712  TIP3      3963            0.0000000000
     29238      4099  TIP3      H1              3.1042915564       -8.2257701575      -31.7438497481  TIP3      3963            0.0000000000
     29239      4099  TIP3      H2              1.8477178840       -8.4091289483      -30.9793787329  TIP3      3963            0.0000000000
     29240      4100  TIP3      OH2             2.3420048058       -7.8274963559      -29.0362569363  TIP3      3964            0.0000000000
     29241      4100  TIP3      H1              1.5857238240       -7.5629489148      -28.4875507689  TIP3      3964            0.0000000000
     29242      4100  TIP3      H2              2.7652031045       -6.9661469047      -29.2472700757  TIP3      3964            0.0000000000
     29243      4101  TIP3      OH2           -13.7478185225       -9.5826288577      -25.6720931402  TIP3      3965            0.0000000000
     29244      4101  TIP3      H1            -12.9433872737       -9.4559568773      -25.1369577346  TIP3      3965            0.0000000000
     29245      4101  TIP3      H2            -14.1292349307      -10.3760404715      -25.2381834538  TIP3      3965            0.0000000000
     29246      4102  TIP3      OH2             4.2027627983      -13.6253279305      -23.9199566969  TIP3      3966            0.0000000000
     29247      4102  TIP3      H1              4.8990794353      -14.0624349087      -24.4336245904  TIP3      3966            0.0000000000
     29248      4102  TIP3      H2              4.1908507984      -12.7160630045      -24.2662423700  TIP3      3966            0.0000000000
     29249      4103  TIP3      OH2             1.1943177978      -12.0725776685      -36.8329610924  TIP3      3967            0.0000000000
     29250      4103  TIP3      H1              1.2353026757      -12.0606502018      -35.8546345701  TIP3      3967            0.0000000000
     29251      4103  TIP3      H2              1.5704293169      -12.9316483994      -37.0328587453  TIP3      3967            0.0000000000
     29252      4104  TIP3      OH2           -12.1400662942      -11.1847244299      -31.7857848877  TIP3      3968            0.0000000000
     29253      4104  TIP3      H1            -11.8439798814      -12.1200603547      -31.8945647166  TIP3      3968            0.0000000000
     29254      4104  TIP3      H2            -11.3187721229      -10.6676107976      -31.8977155335  TIP3      3968            0.0000000000
     29255      4105  TIP3      OH2           -13.8077292879       -8.3111176841      -31.3918646925  TIP3      3969            0.0000000000
     29256      4105  TIP3      H1            -13.2155888802       -8.6086916827      -32.1078956155  TIP3      3969            0.0000000000
     29257      4105  TIP3      H2            -13.3120063287       -7.5516497127      -31.0600347663  TIP3      3969            0.0000000000
     29258      4106  TIP3      OH2             4.1184378684      -11.5465087082      -25.8811400921  TIP3      3970            0.0000000000
     29259      4106  TIP3      H1              3.2327168533      -11.1320267466      -25.7928155600  TIP3      3970            0.0000000000
     29260      4106  TIP3      H2              3.8402240013      -12.2782995657      -26.4789720020  TIP3      3970            0.0000000000
     29261      4107  TIP3      OH2             3.4151232911      -11.6382757799      -40.4585614994  TIP3      3971            0.0000000000
     29262      4107  TIP3      H1              3.3058147085      -12.0543107359      -41.3283474991  TIP3      3971            0.0000000000
     29263      4107  TIP3      H2              3.5192621903      -10.7010352916      -40.7087132655  TIP3      3971            0.0000000000
     29264      4108  TIP3      OH2           -13.2893875298      -12.0273944215      -37.5136740655  TIP3      3972            0.0000000000
     29265      4108  TIP3      H1            -14.2169103410      -11.9389575676      -37.7643405603  TIP3      3972            0.0000000000
     29266      4108  TIP3      H2            -12.8842208588      -11.5322431768      -38.2581240432  TIP3      3972            0.0000000000
     29267      4109  TIP3      OH2             1.3169183327        3.2182705240      -35.3555226919  TIP3      3973            0.0000000000
     29268      4109  TIP3      H1              1.9887193182        2.9638840929      -36.0199739104  TIP3      3973            0.0000000000
     29269      4109  TIP3      H2              1.8011349686        3.8084079382      -34.7579294304  TIP3      3973            0.0000000000
     29270      4110  TIP3      OH2           -13.8939561460      -13.3271185437      -29.4216292602  TIP3      3974            0.0000000000
     29271      4110  TIP3      H1            -14.3872180709      -13.3282428944      -28.5826038326  TIP3      3974            0.0000000000
     29272      4110  TIP3      H2            -14.4254411036      -12.7329374826      -29.9843661920  TIP3      3974            0.0000000000
     29273      4111  TIP3      OH2           -11.7091357822       -0.1297314292      -25.2557978919  TIP3      3975            0.0000000000
     29274      4111  TIP3      H1            -12.5174669082        0.3661760222      -25.4718356966  TIP3      3975            0.0000000000
     29275      4111  TIP3      H2            -12.0459116070       -1.0382297129      -25.2242744147  TIP3      3975            0.0000000000
     29276      4112  TIP3      OH2            -8.6033085065        1.6284252104      -28.4194710295  TIP3      3976            0.0000000000
     29277      4112  TIP3      H1             -8.7113253298        2.4101905654      -29.0079399017  TIP3      3976            0.0000000000
     29278      4112  TIP3      H2             -7.6676128858        1.4023191968      -28.6219560017  TIP3      3976            0.0000000000
     29279      4113  TIP3      OH2            -4.4115116778        2.6359657439      -26.2622423840  TIP3      3977            0.0000000000
     29280      4113  TIP3      H1             -4.3802790472        2.4605431424      -25.2893884263  TIP3      3977            0.0000000000
     29281      4113  TIP3      H2             -3.5487982993        3.0736034985      -26.4097300371  TIP3      3977            0.0000000000
     29282      4114  TIP3      OH2            -2.2357583806        4.2613781942      -26.7799287026  TIP3      3978            0.0000000000
     29283      4114  TIP3      H1             -1.5180928377        3.6769063547      -27.0818281923  TIP3      3978            0.0000000000
     29284      4114  TIP3      H2             -2.0152563428        4.4233920438      -25.8403522556  TIP3      3978            0.0000000000
     29285      4115  TIP3      OH2             3.1537044136      -13.6341032787      -27.4354068570  TIP3      3979            0.0000000000
     29286      4115  TIP3      H1              2.7826057983      -13.2338858856      -28.2402748286  TIP3      3979            0.0000000000
     29287      4115  TIP3      H2              3.1913673349      -14.5732869169      -27.6969435535  TIP3      3979            0.0000000000
     29288      4116  TIP3      OH2           -11.2118722810        4.5425160526      -28.9222480072  TIP3      3980            0.0000000000
     29289      4116  TIP3      H1            -12.0025795963        4.9156848399      -29.3742396866  TIP3      3980            0.0000000000
     29290      4116  TIP3      H2            -11.5220234943        4.5179272941      -28.0043724097  TIP3      3980            0.0000000000
     29291      4117  TIP3      OH2            -8.9688015549        3.7232333956      -30.0099469778  TIP3      3981            0.0000000000
     29292      4117  TIP3      H1             -9.8894029001        3.9552383091      -29.7244127515  TIP3      3981            0.0000000000
     29293      4117  TIP3      H2             -8.7743893374        4.4167503193      -30.6661796338  TIP3      3981            0.0000000000
     29294      4118  TIP3      OH2            -4.3416172046        3.4616630352      -30.5187260772  TIP3      3982            0.0000000000
     29295      4118  TIP3      H1             -5.0710354391        3.9299252076      -30.9754344244  TIP3      3982            0.0000000000
     29296      4118  TIP3      H2             -4.0683883220        4.1439295125      -29.8759781207  TIP3      3982            0.0000000000
     29297      4119  TIP3      OH2            -1.9174639961        2.2892508139      -29.3408138077  TIP3      3983            0.0000000000
     29298      4119  TIP3      H1             -2.6511642519        2.4435777186      -29.9633694232  TIP3      3983            0.0000000000
     29299      4119  TIP3      H2             -1.3118582189        2.9718629527      -29.6660299604  TIP3      3983            0.0000000000
     29300      4120  TIP3      OH2             0.6279391009        4.1079963916      -29.4994867991  TIP3      3984            0.0000000000
     29301      4120  TIP3      H1              0.7244125008        5.0351147075      -29.7569472748  TIP3      3984            0.0000000000
     29302      4120  TIP3      H2              0.8879025054        3.6645584832      -30.3335427393  TIP3      3984            0.0000000000
     29303      4121  TIP3      OH2           -11.5667277911        2.6913760701      -32.0611567986  TIP3      3985            0.0000000000
     29304      4121  TIP3      H1            -11.7137188318        2.0510221612      -31.3372988345  TIP3      3985            0.0000000000
     29305      4121  TIP3      H2            -10.6801722908        2.4042892803      -32.3838959837  TIP3      3985            0.0000000000
     29306      4122  TIP3      OH2            -9.3723866584        1.6545666761      -33.3055374473  TIP3      3986            0.0000000000
     29307      4122  TIP3      H1             -9.5400952239        0.7212654855      -33.0517141640  TIP3      3986            0.0000000000
     29308      4122  TIP3      H2             -8.5449170752        1.7701287267      -32.7832051638  TIP3      3986            0.0000000000
     29309      4123  TIP3      OH2            -7.3469786746        1.4648147010      -31.6334983346  TIP3      3987            0.0000000000
     29310      4123  TIP3      H1             -6.8170696375        0.6775550608      -31.8408439985  TIP3      3987            0.0000000000
     29311      4123  TIP3      H2             -7.0482202190        1.6719587036      -30.7284872449  TIP3      3987            0.0000000000
     29312      4124  TIP3      OH2            -4.1602767092      -13.1789283382      -33.0048364950  TIP3      3988            0.0000000000
     29313      4124  TIP3      H1             -4.9732753713      -13.6647263119      -32.7408171168  TIP3      3988            0.0000000000
     29314      4124  TIP3      H2             -3.5631427597      -13.9260543038      -33.2033210429  TIP3      3988            0.0000000000
     29315      4125  TIP3      OH2             1.7456178067      -14.2145248942      -33.2456301158  TIP3      3989            0.0000000000
     29316      4125  TIP3      H1              2.4033385085      -13.6807929206      -33.7535090292  TIP3      3989            0.0000000000
     29317      4125  TIP3      H2              0.9042615563      -13.8943872419      -33.6486665923  TIP3      3989            0.0000000000
     29318      4126  TIP3      OH2             3.4968595310      -13.2691887613      -35.1086617113  TIP3      3990            0.0000000000
     29319      4126  TIP3      H1              4.1912088622      -13.7224329512      -35.6332493350  TIP3      3990            0.0000000000
     29320      4126  TIP3      H2              4.0138356476      -12.4863223673      -34.7937078924  TIP3      3990            0.0000000000
     29321      4127  TIP3      OH2           -11.1986284881      -13.9214935637      -34.9553596159  TIP3      3991            0.0000000000
     29322      4127  TIP3      H1            -11.9927898980      -14.1187624117      -35.5035850428  TIP3      3991            0.0000000000
     29323      4127  TIP3      H2            -10.7185429037      -14.7727625826      -35.0665831914  TIP3      3991            0.0000000000
     29324      4128  TIP3      OH2           -12.1808257006      -13.9628592090      -39.0641295258  TIP3      3992            0.0000000000
     29325      4128  TIP3      H1            -11.7786504917      -13.3120792437      -39.6851168545  TIP3      3992            0.0000000000
     29326      4128  TIP3      H2            -12.5650443120      -13.3776269777      -38.3775044208  TIP3      3992            0.0000000000
     29327      4129  TIP3      OH2            -6.7566616513      -14.3952703357      -35.2019484726  TIP3      3993            0.0000000000
     29328      4129  TIP3      H1             -5.9989484998      -13.9846912315      -35.6427099368  TIP3      3993            0.0000000000
     29329      4129  TIP3      H2             -6.5722979179      -14.2295134845      -34.2602589554  TIP3      3993            0.0000000000
     29330      4130  TIP3      OH2            -0.8642861434      -13.7350563517      -34.2996232668  TIP3      3994            0.0000000000
     29331      4130  TIP3      H1             -1.3951875214      -13.4550391133      -35.0544708017  TIP3      3994            0.0000000000
     29332      4130  TIP3      H2             -1.3321078156      -14.5695662539      -34.0470895560  TIP3      3994            0.0000000000
     29333      4131  TIP3      OH2             0.0964309014      -14.2105941051      -39.0042017250  TIP3      3995            0.0000000000
     29334      4131  TIP3      H1             -0.1183701384      -13.3116709046      -38.6998789656  TIP3      3995            0.0000000000
     29335      4131  TIP3      H2             -0.3067468872      -14.7573806589      -38.2844134159  TIP3      3995            0.0000000000
     29336      4132  TIP3      OH2           -12.7219388927        2.0504217104      -38.4999560683  TIP3      3996            0.0000000000
     29337      4132  TIP3      H1            -13.5904036633        2.1393775898      -38.9367074208  TIP3      3996            0.0000000000
     29338      4132  TIP3      H2            -12.3865645831        2.9389180657      -38.7348711071  TIP3      3996            0.0000000000
     29339      4133  TIP3      OH2           -10.6980229502      -12.5335657323      -40.8254808780  TIP3      3997            0.0000000000
     29340      4133  TIP3      H1             -9.8695109364      -13.0062959115      -41.0007281421  TIP3      3997            0.0000000000
     29341      4133  TIP3      H2            -10.3722389900      -11.8262964997      -40.2494615724  TIP3      3997            0.0000000000
     29342      4134  TIP3      OH2            -5.1963137724      -11.4093359365      -38.6428205921  TIP3      3998            0.0000000000
     29343      4134  TIP3      H1             -4.7813367488      -12.0129081463      -38.0033209796  TIP3      3998            0.0000000000
     29344      4134  TIP3      H2             -5.2065064987      -10.5968552966      -38.0958230021  TIP3      3998            0.0000000000
     29345      4135  TIP3      OH2            -3.7092148784        3.7108478779      -40.6557916668  TIP3      3999            0.0000000000
     29346      4135  TIP3      H1             -2.7281268291        3.6970009322      -40.6869518561  TIP3      3999            0.0000000000
     29347      4135  TIP3      H2             -3.9175936244        2.8629981529      -41.0811321219  TIP3      3999            0.0000000000
     29348      4136  TIP3      OH2             2.8827171424        2.4494521277      -37.3987142213  TIP3      4000            0.0000000000
     29349      4136  TIP3      H1              2.7132568165        1.6800020825      -37.9999406208  TIP3      4000            0.0000000000
     29350      4136  TIP3      H2              2.9053452225        3.1675736989      -38.0653861661  TIP3      4000            0.0000000000
     29351      4137  TIP3      OH2           -11.3080858007      -12.9511498852      -26.1124992194  TIP3      4001            0.0000000000
     29352      4137  TIP3      H1            -11.9115073563      -13.6897512276      -25.9253615842  TIP3      4001            0.0000000000
     29353      4137  TIP3      H2            -10.5436922368      -13.1636381110      -25.5437266617  TIP3      4001            0.0000000000
     29354      4138  TIP3      OH2            -9.2246875351      -13.2658038739      -24.2660610468  TIP3      4002            0.0000000000
     29355      4138  TIP3      H1             -8.4974571705      -13.6203642149      -24.8077144293  TIP3      4002            0.0000000000
     29356      4138  TIP3      H2             -9.6386731832      -14.1032907355      -23.9525630974  TIP3      4002            0.0000000000
     29357      4139  TIP3      OH2           -10.3231726767        3.3823999144      -41.7485007375  TIP3      4003            0.0000000000
     29358      4139  TIP3      H1            -11.1572639520        3.8367475296      -41.9850907107  TIP3      4003            0.0000000000
     29359      4139  TIP3      H2            -10.5908231115        2.7478245896      -41.0723150990  TIP3      4003            0.0000000000
     29360      4140  TIP3      OH2            -0.7689052727      -13.9600502011      -23.9415506154  TIP3      4004            0.0000000000
     29361      4140  TIP3      H1             -0.7737605406      -14.7912731716      -23.4537836866  TIP3      4004            0.0000000000
     29362      4140  TIP3      H2              0.1342722312      -14.0120867997      -24.3354880627  TIP3      4004            0.0000000000
     29363      4141  TIP3      OH2             2.1407838894        1.8077956995      -25.6951261174  TIP3      4005            0.0000000000
     29364      4141  TIP3      H1              1.4408830393        1.6886998688      -26.3811427833  TIP3      4005            0.0000000000
     29365      4141  TIP3      H2              2.0075299365        2.7571082654      -25.5011417537  TIP3      4005            0.0000000000
     29366      4142  TIP3      OH2            17.1070848112       -4.4663452940      -35.5721045203  TIP3      4006            0.0000000000
     29367      4142  TIP3      H1             16.8724792037       -3.5648851110      -35.9016731445  TIP3      4006            0.0000000000
     29368      4142  TIP3      H2             16.4144282998       -5.0104749416      -35.9704894905  TIP3      4006            0.0000000000
     29369      4143  TIP3      OH2            15.7783073349       -5.7123857919      -32.2880726908  TIP3      4007            0.0000000000
     29370      4143  TIP3      H1             15.7375460664       -6.0575252571      -31.3682388182  TIP3      4007            0.0000000000
     29371      4143  TIP3      H2             14.9641131239       -6.0673951386      -32.6762808966  TIP3      4007            0.0000000000
     29372      4144  TIP3      OH2             7.5231499822       -5.9461004312      -30.8208173308  TIP3      4008            0.0000000000
     29373      4144  TIP3      H1              7.7777027438       -6.6562983470      -30.2046623013  TIP3      4008            0.0000000000
     29374      4144  TIP3      H2              8.1007577725       -5.2322799701      -30.5146177100  TIP3      4008            0.0000000000
     29375      4145  TIP3      OH2            19.2680916001       -2.4806335525      -33.2835157398  TIP3      4009            0.0000000000
     29376      4145  TIP3      H1             19.0013333131       -3.1875136066      -32.6783243505  TIP3      4009            0.0000000000
     29377      4145  TIP3      H2             19.6765086261       -1.8327608800      -32.6798986933  TIP3      4009            0.0000000000
     29378      4146  TIP3      OH2             8.9830355740       -0.5313926252      -32.9446769513  TIP3      4010            0.0000000000
     29379      4146  TIP3      H1              8.7644051356       -1.4801862078      -32.8900931666  TIP3      4010            0.0000000000
     29380      4146  TIP3      H2              9.9591311722       -0.6098689385      -33.0226961096  TIP3      4010            0.0000000000
     29381      4147  TIP3      OH2             5.8223597256       -7.8670991049      -36.3182303454  TIP3      4011            0.0000000000
     29382      4147  TIP3      H1              5.4650915733       -6.9648834609      -36.4594372002  TIP3      4011            0.0000000000
     29383      4147  TIP3      H2              5.0058362278       -8.3803895311      -36.4297158185  TIP3      4011            0.0000000000
     29384      4148  TIP3      OH2             5.7710454281       -5.4991975926      -33.9534461340  TIP3      4012            0.0000000000
     29385      4148  TIP3      H1              6.0875181778       -6.4236681830      -33.7884175658  TIP3      4012            0.0000000000
     29386      4148  TIP3      H2              6.5095054909       -5.0620304818      -34.3871914891  TIP3      4012            0.0000000000
     29387      4149  TIP3      OH2            16.6360336921        2.8919571966      -33.7446109823  TIP3      4013            0.0000000000
     29388      4149  TIP3      H1             17.2486368616        2.3438678813      -34.2884343852  TIP3      4013            0.0000000000
     29389      4149  TIP3      H2             16.2904942360        2.1914787049      -33.1757266525  TIP3      4013            0.0000000000
     29390      4150  TIP3      OH2            13.7034554432       -2.4885634252      -31.0383885253  TIP3      4014            0.0000000000
     29391      4150  TIP3      H1             14.0862846255       -2.8564102039      -31.8417279454  TIP3      4014            0.0000000000
     29392      4150  TIP3      H2             14.5214133847       -2.2794878657      -30.5335334342  TIP3      4014            0.0000000000
     29393      4151  TIP3      OH2            22.4944212403      -11.1524035695      -31.5292576476  TIP3      4015            0.0000000000
     29394      4151  TIP3      H1             22.6988101134      -10.8164686640      -30.6378535314  TIP3      4015            0.0000000000
     29395      4151  TIP3      H2             23.3254411748      -10.9216007305      -31.9933393967  TIP3      4015            0.0000000000
     29396      4152  TIP3      OH2            17.6529319648       -8.3596410750      -30.9234411347  TIP3      4016            0.0000000000
     29397      4152  TIP3      H1             17.8077776652       -9.2505626686      -30.5619025180  TIP3      4016            0.0000000000
     29398      4152  TIP3      H2             17.5773545264       -8.5726502814      -31.8750890864  TIP3      4016            0.0000000000
     29399      4153  TIP3      OH2             9.9678328965      -11.2627087842      -33.6201762504  TIP3      4017            0.0000000000
     29400      4153  TIP3      H1             10.4090159600      -10.5446856325      -34.1039059763  TIP3      4017            0.0000000000
     29401      4153  TIP3      H2              9.9536616271      -11.9612214844      -34.3039896787  TIP3      4017            0.0000000000
     29402      4154  TIP3      OH2            17.9989454439      -10.3241180028      -35.4162396770  TIP3      4018            0.0000000000
     29403      4154  TIP3      H1             18.4645531148      -10.6880928348      -34.6367272490  TIP3      4018            0.0000000000
     29404      4154  TIP3      H2             18.6700890173       -9.6992551037      -35.7445146241  TIP3      4018            0.0000000000
     29405      4155  TIP3      OH2             6.6872355012       -7.9466862609      -33.4023425893  TIP3      4019            0.0000000000
     29406      4155  TIP3      H1              7.3059089553       -8.2349227211      -32.7043425424  TIP3      4019            0.0000000000
     29407      4155  TIP3      H2              6.9429820381       -8.5325106446      -34.1358365739  TIP3      4019            0.0000000000
     29408      4156  TIP3      OH2            11.5667529646       -6.0669625014      -33.7888832184  TIP3      4020            0.0000000000
     29409      4156  TIP3      H1             12.3462691225       -6.5845622276      -34.0502106003  TIP3      4020            0.0000000000
     29410      4156  TIP3      H2             11.2368450133       -6.5970550755      -33.0462453244  TIP3      4020            0.0000000000
     29411      4157  TIP3      OH2            22.7625834928       -9.9895297905      -28.8151663661  TIP3      4021            0.0000000000
     29412      4157  TIP3      H1             22.3235932080       -9.1320893077      -29.0338211753  TIP3      4021            0.0000000000
     29413      4157  TIP3      H2             23.1571138829       -9.7891540138      -27.9588822253  TIP3      4021            0.0000000000
     29414      4158  TIP3      OH2             9.7102660979      -11.3840612740      -30.2858159532  TIP3      4022            0.0000000000
     29415      4158  TIP3      H1              9.4118605593      -10.8858041127      -31.0714771661  TIP3      4022            0.0000000000
     29416      4158  TIP3      H2              8.9452504953      -11.2789792530      -29.6964071267  TIP3      4022            0.0000000000
     29417      4159  TIP3      OH2            16.0923038515       -2.2190220556      -36.5905953778  TIP3      4023            0.0000000000
     29418      4159  TIP3      H1             15.8775685214       -2.1339651601      -37.5386852656  TIP3      4023            0.0000000000
     29419      4159  TIP3      H2             15.7372798581       -1.3710681381      -36.2424981909  TIP3      4023            0.0000000000
     29420      4160  TIP3      OH2            11.3927892732       -3.5296387142      -30.1467516818  TIP3      4024            0.0000000000
     29421      4160  TIP3      H1             10.9154645437       -2.8006840643      -29.6914883546  TIP3      4024            0.0000000000
     29422      4160  TIP3      H2             12.1794634765       -3.0601149689      -30.5096804490  TIP3      4024            0.0000000000
     29423      4161  TIP3      OH2            20.1424030053      -10.2623622038      -33.0642351398  TIP3      4025            0.0000000000
     29424      4161  TIP3      H1             20.8465922664      -10.8991970581      -33.2564793370  TIP3      4025            0.0000000000
     29425      4161  TIP3      H2             20.5856760927       -9.7220342935      -32.3688875448  TIP3      4025            0.0000000000
     29426      4162  TIP3      OH2             8.6356710713       -9.3678852455      -32.2098518717  TIP3      4026            0.0000000000
     29427      4162  TIP3      H1              9.3140225136       -8.7682714952      -31.8289712068  TIP3      4026            0.0000000000
     29428      4162  TIP3      H2              9.1472726419       -9.8862693676      -32.8651801448  TIP3      4026            0.0000000000
     29429      4163  TIP3      OH2            10.0671611732       -1.5088512229      -29.0322006502  TIP3      4027            0.0000000000
     29430      4163  TIP3      H1              9.7669319023       -1.0708118462      -29.8449233263  TIP3      4027            0.0000000000
     29431      4163  TIP3      H2              9.2479304369       -1.5249508172      -28.4777839028  TIP3      4027            0.0000000000
     29432      4164  TIP3      OH2             6.0159396816       -2.5080730834      -38.2650390196  TIP3      4028            0.0000000000
     29433      4164  TIP3      H1              5.9519436507       -2.0784322153      -39.1389076455  TIP3      4028            0.0000000000
     29434      4164  TIP3      H2              6.0901853996       -1.7177230810      -37.6733527604  TIP3      4028            0.0000000000
     29435      4165  TIP3      OH2            19.8659703197       -0.4771018980      -31.3856815123  TIP3      4029            0.0000000000
     29436      4165  TIP3      H1             18.9136905244       -0.4420212131      -31.1400480131  TIP3      4029            0.0000000000
     29437      4165  TIP3      H2             19.8930345011        0.4017811746      -31.8220786481  TIP3      4029            0.0000000000
     29438      4166  TIP3      OH2            19.8825830760      -12.1467195461      -30.3870041994  TIP3      4030            0.0000000000
     29439      4166  TIP3      H1             19.0572594460      -11.8824684230      -30.8546975247  TIP3      4030            0.0000000000
     29440      4166  TIP3      H2             20.5430571748      -11.8615156288      -31.0413262247  TIP3      4030            0.0000000000
     29441      4167  TIP3      OH2            12.7158357849      -14.7613716003      -32.3503762048  TIP3      4031            0.0000000000
     29442      4167  TIP3      H1             12.3269935942      -15.6307899467      -32.1051496603  TIP3      4031            0.0000000000
     29443      4167  TIP3      H2             11.9054726809      -14.1991930072      -32.2323514980  TIP3      4031            0.0000000000
     29444      4168  TIP3      OH2            18.2632196341        1.3275679239      -35.1841072422  TIP3      4032            0.0000000000
     29445      4168  TIP3      H1             18.5661944353        0.4720808798      -35.5785028911  TIP3      4032            0.0000000000
     29446      4168  TIP3      H2             19.0828774302        1.8838699517      -35.2429233673  TIP3      4032            0.0000000000
     29447      4169  TIP3      OH2            19.2704770658       -0.8849750663      -36.2899354953  TIP3      4033            0.0000000000
     29448      4169  TIP3      H1             19.2141052767       -1.5112718234      -37.0368217553  TIP3      4033            0.0000000000
     29449      4169  TIP3      H2             19.2487157978       -1.4855529501      -35.5200102759  TIP3      4033            0.0000000000
     29450      4170  TIP3      OH2            20.9904312946       -1.9830316592      -27.5578315207  TIP3      4034            0.0000000000
     29451      4170  TIP3      H1             21.1527849095       -2.7404778069      -28.1621838926  TIP3      4034            0.0000000000
     29452      4170  TIP3      H2             21.1876698203       -1.2438840206      -28.1774806087  TIP3      4034            0.0000000000
     29453      4171  TIP3      OH2            15.3534391957       -5.4968327728      -38.2637618637  TIP3      4035            0.0000000000
     29454      4171  TIP3      H1             14.6864018571       -4.7745910415      -38.2126608217  TIP3      4035            0.0000000000
     29455      4171  TIP3      H2             16.1723908680       -5.0021377751      -38.4605827653  TIP3      4035            0.0000000000
     29456      4172  TIP3      OH2            15.4134412077       -6.1429603581      -41.0791386235  TIP3      4036            0.0000000000
     29457      4172  TIP3      H1             15.5554957954       -5.8297393721      -40.1666690211  TIP3      4036            0.0000000000
     29458      4172  TIP3      H2             15.7879840558       -7.0291514062      -41.0326325970  TIP3      4036            0.0000000000
     29459      4173  TIP3      OH2            22.9434900541       -5.5916610767      -29.7040703765  TIP3      4037            0.0000000000
     29460      4173  TIP3      H1             22.2131824393       -4.9427088743      -29.6745554728  TIP3      4037            0.0000000000
     29461      4173  TIP3      H2             23.5015957775       -5.2049724219      -30.4111096168  TIP3      4037            0.0000000000
     29462      4174  TIP3      OH2            19.4777343810       -4.9420044939      -36.8317296808  TIP3      4038            0.0000000000
     29463      4174  TIP3      H1             18.6746520246       -4.7700195611      -36.2826458286  TIP3      4038            0.0000000000
     29464      4174  TIP3      H2             19.9545081809       -5.5725000714      -36.2461032966  TIP3      4038            0.0000000000
     29465      4175  TIP3      OH2            18.9283448001       -6.7260857682      -27.6688395461  TIP3      4039            0.0000000000
     29466      4175  TIP3      H1             19.0178053791       -5.8953386561      -27.1599433450  TIP3      4039            0.0000000000
     29467      4175  TIP3      H2             18.2721605029       -6.4832724049      -28.3461224086  TIP3      4039            0.0000000000
     29468      4176  TIP3      OH2            10.2222106131       -4.1666968548      -35.2687093225  TIP3      4040            0.0000000000
     29469      4176  TIP3      H1             10.6385592259       -3.4053413039      -35.7133746100  TIP3      4040            0.0000000000
     29470      4176  TIP3      H2             10.9872914806       -4.4895621434      -34.7513690188  TIP3      4040            0.0000000000
     29471      4177  TIP3      OH2            11.7419533208       -1.2907787758      -32.6854658402  TIP3      4041            0.0000000000
     29472      4177  TIP3      H1             11.9551400081       -1.7512854078      -33.5083458759  TIP3      4041            0.0000000000
     29473      4177  TIP3      H2             12.4677187066       -1.5826875195      -32.0990973304  TIP3      4041            0.0000000000
     29474      4178  TIP3      OH2            10.2265168746       -5.5155740419      -31.4242949885  TIP3      4042            0.0000000000
     29475      4178  TIP3      H1             10.8329249284       -5.0687814443      -32.0367849222  TIP3      4042            0.0000000000
     29476      4178  TIP3      H2             10.4516395353       -4.9941995835      -30.6176874668  TIP3      4042            0.0000000000
     29477      4179  TIP3      OH2            17.2872777902       -0.1115528308      -30.8318984076  TIP3      4043            0.0000000000
     29478      4179  TIP3      H1             17.0353181605        0.5232441402      -30.1373489783  TIP3      4043            0.0000000000
     29479      4179  TIP3      H2             17.0864610418       -0.9796638584      -30.4219425481  TIP3      4043            0.0000000000
     29480      4180  TIP3      OH2            11.8858820721       -1.0176841583      -27.0471834096  TIP3      4044            0.0000000000
     29481      4180  TIP3      H1             11.1739088769       -0.6094602396      -26.5138123269  TIP3      4044            0.0000000000
     29482      4180  TIP3      H2             11.3446277333       -1.2381787165      -27.8352155693  TIP3      4044            0.0000000000
     29483      4181  TIP3      OH2            18.0215227098       -5.5443255318      -39.0090999338  TIP3      4045            0.0000000000
     29484      4181  TIP3      H1             18.6133625997       -5.2581425375      -38.2803335800  TIP3      4045            0.0000000000
     29485      4181  TIP3      H2             18.4729354993       -5.1299086204      -39.7695530987  TIP3      4045            0.0000000000
     29486      4182  TIP3      OH2             8.5692399257       -5.0261266019      -28.0689284636  TIP3      4046            0.0000000000
     29487      4182  TIP3      H1              8.7257668919       -4.3175889697      -27.4290089035  TIP3      4046            0.0000000000
     29488      4182  TIP3      H2              7.7272729301       -5.3990826609      -27.7316956141  TIP3      4046            0.0000000000
     29489      4183  TIP3      OH2            14.5673156257        0.0156560632      -36.1776757399  TIP3      4047            0.0000000000
     29490      4183  TIP3      H1             15.0790894798        0.6351009403      -35.6372217549  TIP3      4047            0.0000000000
     29491      4183  TIP3      H2             14.4392472579        0.5284547993      -36.9988613124  TIP3      4047            0.0000000000
     29492      4184  TIP3      OH2             9.8827305870        0.4082710224      -25.8746125472  TIP3      4048            0.0000000000
     29493      4184  TIP3      H1             10.1173109196        0.9870950195      -26.6386231566  TIP3      4048            0.0000000000
     29494      4184  TIP3      H2              8.9213324831        0.3527537133      -25.9951478310  TIP3      4048            0.0000000000
     29495      4185  TIP3      OH2            21.8174029496      -14.2343588507      -38.9783102959  TIP3      4049            0.0000000000
     29496      4185  TIP3      H1             20.8602051861      -14.2204739205      -39.2160623948  TIP3      4049            0.0000000000
     29497      4185  TIP3      H2             22.1131616906      -13.4309833125      -39.4444004028  TIP3      4049            0.0000000000
     29498      4186  TIP3      OH2             9.3555997762       -5.7801914469      -38.3173631636  TIP3      4050            0.0000000000
     29499      4186  TIP3      H1              9.0062011120       -4.8521573421      -38.4027326046  TIP3      4050            0.0000000000
     29500      4186  TIP3      H2              8.9235558024       -6.2011672451      -39.0779993118  TIP3      4050            0.0000000000
     29501      4187  TIP3      OH2            22.5640076034        0.4552842659      -40.9389394442  TIP3      4051            0.0000000000
     29502      4187  TIP3      H1             22.7682067983        1.4096519417      -40.9861074898  TIP3      4051            0.0000000000
     29503      4187  TIP3      H2             23.4330903434        0.0547654466      -41.1025256227  TIP3      4051            0.0000000000
     29504      4188  TIP3      OH2             5.6535942094       -2.9010913414      -28.5522413504  TIP3      4052            0.0000000000
     29505      4188  TIP3      H1              5.1436961972       -2.8475088661      -29.3741731759  TIP3      4052            0.0000000000
     29506      4188  TIP3      H2              5.9285112931       -3.8425855679      -28.6017805517  TIP3      4052            0.0000000000
     29507      4189  TIP3      OH2             5.8581237782       -0.3112344938      -32.0383331667  TIP3      4053            0.0000000000
     29508      4189  TIP3      H1              6.7415264888       -0.5920158503      -32.3187996631  TIP3      4053            0.0000000000
     29509      4189  TIP3      H2              6.0743231023        0.3506769290      -31.3570940887  TIP3      4053            0.0000000000
     29510      4190  TIP3      OH2            23.5175610466        0.3652296913      -25.9646141699  TIP3      4054            0.0000000000
     29511      4190  TIP3      H1             23.2850124166       -0.5273626543      -26.2537106056  TIP3      4054            0.0000000000
     29512      4190  TIP3      H2             22.7236810657        0.5582329960      -25.4202044014  TIP3      4054            0.0000000000
     29513      4191  TIP3      OH2            14.4614574304       -0.0525862588      -27.4826679081  TIP3      4055            0.0000000000
     29514      4191  TIP3      H1             14.6183214634        0.6228082917      -26.7945545603  TIP3      4055            0.0000000000
     29515      4191  TIP3      H2             13.5492635198       -0.3552564114      -27.2872709012  TIP3      4055            0.0000000000
     29516      4192  TIP3      OH2            14.9458156710        3.4796088360      -37.9116409240  TIP3      4056            0.0000000000
     29517      4192  TIP3      H1             14.9057949741        3.8026119570      -38.8350388205  TIP3      4056            0.0000000000
     29518      4192  TIP3      H2             14.9494262624        4.3091363523      -37.3979832271  TIP3      4056            0.0000000000
     29519      4193  TIP3      OH2             8.6272536704        2.2352233299      -35.6802223297  TIP3      4057            0.0000000000
     29520      4193  TIP3      H1              9.1544493510        2.4055487936      -34.8623850564  TIP3      4057            0.0000000000
     29521      4193  TIP3      H2              7.8325653935        1.8533376924      -35.2716013774  TIP3      4057            0.0000000000
     29522      4194  TIP3      OH2            17.8348753519        2.6735090376      -40.9046616764  TIP3      4058            0.0000000000
     29523      4194  TIP3      H1             18.4941899460        2.0761576086      -41.3239604698  TIP3      4058            0.0000000000
     29524      4194  TIP3      H2             18.0946806314        2.5747313219      -39.9751160564  TIP3      4058            0.0000000000
     29525      4195  TIP3      OH2            17.7908407102        3.0456860159      -37.9117111520  TIP3      4059            0.0000000000
     29526      4195  TIP3      H1             16.8121477951        3.0354719461      -37.8784493323  TIP3      4059            0.0000000000
     29527      4195  TIP3      H2             18.0331030114        2.4966718359      -37.1414908732  TIP3      4059            0.0000000000
     29528      4196  TIP3      OH2            20.1404262708       -8.4553171529      -25.5459516947  TIP3      4060            0.0000000000
     29529      4196  TIP3      H1             19.8305796205       -7.9766368404      -26.3461701133  TIP3      4060            0.0000000000
     29530      4196  TIP3      H2             20.2204363422       -9.3453952783      -25.9183839542  TIP3      4060            0.0000000000
     29531      4197  TIP3      OH2             7.8387581513       -1.6342644318      -27.5225241137  TIP3      4061            0.0000000000
     29532      4197  TIP3      H1              8.0240340771       -2.2242714968      -26.7450720516  TIP3      4061            0.0000000000
     29533      4197  TIP3      H2              7.1099632241       -2.1156472869      -27.9756760512  TIP3      4061            0.0000000000
     29534      4198  TIP3      OH2            10.4976575115      -13.5038231606      -31.7352126583  TIP3      4062            0.0000000000
     29535      4198  TIP3      H1              9.5983374860      -13.4274817193      -32.1210398387  TIP3      4062            0.0000000000
     29536      4198  TIP3      H2             10.4553105844      -12.7430443007      -31.1186454278  TIP3      4062            0.0000000000
     29537      4199  TIP3      OH2            15.3992722888      -13.5470630276      -28.6413453327  TIP3      4063            0.0000000000
     29538      4199  TIP3      H1             15.7013908475      -14.1049735789      -27.8848506676  TIP3      4063            0.0000000000
     29539      4199  TIP3      H2             14.4207551843      -13.4709032340      -28.4948783859  TIP3      4063            0.0000000000
     29540      4200  TIP3      OH2            18.2984289390       -9.5484500304      -27.5473363327  TIP3      4064            0.0000000000
     29541      4200  TIP3      H1             17.8729357124      -10.0315136868      -26.8013147645  TIP3      4064            0.0000000000
     29542      4200  TIP3      H2             17.9773704158       -8.6436408446      -27.4298168686  TIP3      4064            0.0000000000
     29543      4201  TIP3      OH2            19.3476935127       -4.3978229814      -41.1350760828  TIP3      4065            0.0000000000
     29544      4201  TIP3      H1             19.2136709890       -4.2181247644      -42.0725068887  TIP3      4065            0.0000000000
     29545      4201  TIP3      H2             20.0763076465       -3.7894151580      -40.9233655413  TIP3      4065            0.0000000000
     29546      4202  TIP3      OH2            14.9871498667      -10.7059628287      -41.0037327036  TIP3      4066            0.0000000000
     29547      4202  TIP3      H1             14.5871997744      -10.7705191017      -40.1160914675  TIP3      4066            0.0000000000
     29548      4202  TIP3      H2             14.7222403368      -11.5494134719      -41.3850535140  TIP3      4066            0.0000000000
     29549      4203  TIP3      OH2            10.4803019811       -8.0580810539      -30.7367605659  TIP3      4067            0.0000000000
     29550      4203  TIP3      H1              9.7576871082       -8.2204507412      -30.0865344363  TIP3      4067            0.0000000000
     29551      4203  TIP3      H2             10.3991180019       -7.0817827946      -30.8298674187  TIP3      4067            0.0000000000
     29552      4204  TIP3      OH2            10.4510515386       -9.0575706923      -35.2230004708  TIP3      4068            0.0000000000
     29553      4204  TIP3      H1              9.6279367253       -9.5618749779      -35.4437074897  TIP3      4068            0.0000000000
     29554      4204  TIP3      H2             10.9412274594       -9.1104627464      -36.0720016663  TIP3      4068            0.0000000000
     29555      4205  TIP3      OH2            16.2853898427       -7.4499298087      -36.6893412487  TIP3      4069            0.0000000000
     29556      4205  TIP3      H1             15.9176549025       -6.7518830943      -37.2827783150  TIP3      4069            0.0000000000
     29557      4205  TIP3      H2             16.9856407924       -7.8207060956      -37.2651554047  TIP3      4069            0.0000000000
     29558      4206  TIP3      OH2            14.8888426077       -6.7994355638      -24.9645970292  TIP3      4070            0.0000000000
     29559      4206  TIP3      H1             14.5224988032       -7.6992978055      -24.8200173284  TIP3      4070            0.0000000000
     29560      4206  TIP3      H2             15.8274337140       -6.9541577432      -24.7488889472  TIP3      4070            0.0000000000
     29561      4207  TIP3      OH2            17.3460597992       -7.8945904157      -33.7745311504  TIP3      4071            0.0000000000
     29562      4207  TIP3      H1             17.1099415607       -7.0341101253      -34.1684370406  TIP3      4071            0.0000000000
     29563      4207  TIP3      H2             17.2672119031       -8.4745404441      -34.5538782275  TIP3      4071            0.0000000000
     29564      4208  TIP3      OH2             8.1547987588       -8.4169042181      -29.3169704588  TIP3      4072            0.0000000000
     29565      4208  TIP3      H1              8.3629241205       -7.9760090279      -28.4733494378  TIP3      4072            0.0000000000
     29566      4208  TIP3      H2              7.7199015930       -9.2407172496      -29.0252076077  TIP3      4072            0.0000000000
     29567      4209  TIP3      OH2            11.6300837050      -10.3584050382      -41.5019607326  TIP3      4073            0.0000000000
     29568      4209  TIP3      H1             11.3321572391      -10.8006189028      -40.6838312246  TIP3      4073            0.0000000000
     29569      4209  TIP3      H2             11.1805902282       -9.5003368428      -41.4551908958  TIP3      4073            0.0000000000
     29570      4210  TIP3      OH2             4.9792616161      -11.1934697332      -34.3224894683  TIP3      4074            0.0000000000
     29571      4210  TIP3      H1              5.6380121929      -10.9913630774      -33.6311417603  TIP3      4074            0.0000000000
     29572      4210  TIP3      H2              5.3877031510      -10.8882684389      -35.1401347384  TIP3      4074            0.0000000000
     29573      4211  TIP3      OH2             6.3488881791      -10.3823213195      -39.3978294568  TIP3      4075            0.0000000000
     29574      4211  TIP3      H1              6.6723698544      -10.0136888328      -40.2423156552  TIP3      4075            0.0000000000
     29575      4211  TIP3      H2              5.6318145754       -9.7504897864      -39.1897489567  TIP3      4075            0.0000000000
     29576      4212  TIP3      OH2            15.9665315815       -6.5879201919      -29.7431034473  TIP3      4076            0.0000000000
     29577      4212  TIP3      H1             16.6684099409       -7.1795101255      -30.1174867303  TIP3      4076            0.0000000000
     29578      4212  TIP3      H2             15.5790141659       -7.1494141233      -29.0300738522  TIP3      4076            0.0000000000
     29579      4213  TIP3      OH2            13.6222542918      -10.8221652323      -34.6231618823  TIP3      4077            0.0000000000
     29580      4213  TIP3      H1             12.8622744785      -10.3440511617      -34.2660404500  TIP3      4077            0.0000000000
     29581      4213  TIP3      H2             13.9022955876      -11.3722722106      -33.8597204568  TIP3      4077            0.0000000000
     29582      4214  TIP3      OH2             7.8524481217       -9.6445004142      -35.8897088011  TIP3      4078            0.0000000000
     29583      4214  TIP3      H1              7.2238000260       -8.9434766148      -36.1696046696  TIP3      4078            0.0000000000
     29584      4214  TIP3      H2              7.6125723171      -10.3679998059      -36.5062408692  TIP3      4078            0.0000000000
     29585      4215  TIP3      OH2            11.3042536849       -8.5110250038      -37.8716757807  TIP3      4079            0.0000000000
     29586      4215  TIP3      H1             12.2770367100       -8.5984573561      -37.8915799252  TIP3      4079            0.0000000000
     29587      4215  TIP3      H2             11.0890166887       -8.1421726344      -38.7513093238  TIP3      4079            0.0000000000
     29588      4216  TIP3      OH2            17.5938746012      -11.3816764523      -31.5390239238  TIP3      4080            0.0000000000
     29589      4216  TIP3      H1             16.7911191994      -11.5336924218      -31.0105431475  TIP3      4080            0.0000000000
     29590      4216  TIP3      H2             17.4411120571      -11.8728401912      -32.3653068222  TIP3      4080            0.0000000000
     29591      4217  TIP3      OH2            10.3681795080       -7.6001061616      -40.9379688478  TIP3      4081            0.0000000000
     29592      4217  TIP3      H1              9.9839416146       -7.6081659804      -41.8323259346  TIP3      4081            0.0000000000
     29593      4217  TIP3      H2             11.3054920312       -7.3683114140      -41.1492971789  TIP3      4081            0.0000000000
     29594      4218  TIP3      OH2            20.5677159090        4.2254997446      -25.0013100945  TIP3      4082            0.0000000000
     29595      4218  TIP3      H1             21.0464901689        4.3224166609      -25.8491513412  TIP3      4082            0.0000000000
     29596      4218  TIP3      H2             20.6521514530        5.1436285288      -24.6738664754  TIP3      4082            0.0000000000
     29597      4219  TIP3      OH2             8.3253461045       -3.3047007505      -25.5452851452  TIP3      4083            0.0000000000
     29598      4219  TIP3      H1              9.0641616391       -3.4522593036      -24.9335526441  TIP3      4083            0.0000000000
     29599      4219  TIP3      H2              7.5557293696       -3.6206774597      -25.0306771400  TIP3      4083            0.0000000000
     29600      4220  TIP3      OH2            13.9067476527       -8.1302002426      -33.0700195912  TIP3      4084            0.0000000000
     29601      4220  TIP3      H1             14.8321332936       -8.3099442680      -33.3066313732  TIP3      4084            0.0000000000
     29602      4220  TIP3      H2             13.7605837877       -8.7538524093      -32.3360528400  TIP3      4084            0.0000000000
     29603      4221  TIP3      OH2             9.2790108425      -12.2403856552      -36.3122159834  TIP3      4085            0.0000000000
     29604      4221  TIP3      H1              8.5918780860      -12.7800756782      -35.8601587196  TIP3      4085            0.0000000000
     29605      4221  TIP3      H2              9.7224924050      -12.8990029050      -36.8594402937  TIP3      4085            0.0000000000
     29606      4222  TIP3      OH2            12.8462138848       -9.2047323916      -30.0285376256  TIP3      4086            0.0000000000
     29607      4222  TIP3      H1             12.0415071324       -8.6828748372      -30.2470136443  TIP3      4086            0.0000000000
     29608      4222  TIP3      H2             13.4889918309       -8.5086629670      -29.8438112374  TIP3      4086            0.0000000000
     29609      4223  TIP3      OH2            13.5671076465       -3.5329336518      -38.1747378175  TIP3      4087            0.0000000000
     29610      4223  TIP3      H1             12.8381930929       -4.0222827338      -38.6327685406  TIP3      4087            0.0000000000
     29611      4223  TIP3      H2             13.0596748362       -3.1266312586      -37.4498541255  TIP3      4087            0.0000000000
     29612      4224  TIP3      OH2            21.0908536393       -3.6056518410      -29.6671941913  TIP3      4088            0.0000000000
     29613      4224  TIP3      H1             21.5518090015       -3.0256106825      -30.3228084806  TIP3      4088            0.0000000000
     29614      4224  TIP3      H2             20.2719398551       -3.7964685098      -30.1526817827  TIP3      4088            0.0000000000
     29615      4225  TIP3      OH2            17.4842967861      -10.3217217589      -39.7868849773  TIP3      4089            0.0000000000
     29616      4225  TIP3      H1             16.6853339200      -10.2828077133      -40.3462362266  TIP3      4089            0.0000000000
     29617      4225  TIP3      H2             17.7220667801       -9.3807861942      -39.6500185735  TIP3      4089            0.0000000000
     29618      4226  TIP3      OH2            14.2666322465       -3.1496792171      -27.6726575165  TIP3      4090            0.0000000000
     29619      4226  TIP3      H1             14.5513022503       -3.0513021562      -26.7483895177  TIP3      4090            0.0000000000
     29620      4226  TIP3      H2             14.1328133986       -2.2162309360      -27.9092194031  TIP3      4090            0.0000000000
     29621      4227  TIP3      OH2            18.2639469108       -8.2166816529      -38.3831287367  TIP3      4091            0.0000000000
     29622      4227  TIP3      H1             19.0455913404       -8.5031590006      -37.8796359805  TIP3      4091            0.0000000000
     29623      4227  TIP3      H2             18.4382417114       -7.2752107763      -38.5396325086  TIP3      4091            0.0000000000
     29624      4228  TIP3      OH2             8.5801526564       -3.6534719882      -32.9435757323  TIP3      4092            0.0000000000
     29625      4228  TIP3      H1              8.9299598580       -3.8876689672      -33.8143697976  TIP3      4092            0.0000000000
     29626      4228  TIP3      H2              8.9128297517       -4.3537051754      -32.3537396963  TIP3      4092            0.0000000000
     29627      4229  TIP3      OH2            15.3224314598       -2.0389948390      -39.4821725267  TIP3      4093            0.0000000000
     29628      4229  TIP3      H1             14.9210681398       -1.1670893748      -39.2707306558  TIP3      4093            0.0000000000
     29629      4229  TIP3      H2             14.6882622460       -2.6502165035      -39.0498364108  TIP3      4093            0.0000000000
     29630      4230  TIP3      OH2             5.7804648617       -5.5730246791      -27.9530012124  TIP3      4094            0.0000000000
     29631      4230  TIP3      H1              5.5255006733       -6.0753331993      -27.1585222594  TIP3      4094            0.0000000000
     29632      4230  TIP3      H2              5.0913067248       -5.8198612040      -28.6065142308  TIP3      4094            0.0000000000
     29633      4231  TIP3      OH2            12.2382399007       -5.7013228536      -25.7078006511  TIP3      4095            0.0000000000
     29634      4231  TIP3      H1             12.1817218777       -5.9013965472      -26.6526530345  TIP3      4095            0.0000000000
     29635      4231  TIP3      H2             13.1638553044       -5.9398667094      -25.5096993587  TIP3      4095            0.0000000000
     29636      4232  TIP3      OH2            17.6975360485       -0.5624997400      -27.2048089429  TIP3      4096            0.0000000000
     29637      4232  TIP3      H1             16.9631104778       -0.3298277818      -27.7911427585  TIP3      4096            0.0000000000
     29638      4232  TIP3      H2             17.4078176335       -0.1107683567      -26.3828211996  TIP3      4096            0.0000000000
     29639      4233  TIP3      OH2            23.1235930043       -8.4838709263      -38.8789022688  TIP3      4097            0.0000000000
     29640      4233  TIP3      H1             22.5425512094       -8.4715637080      -39.6737969894  TIP3      4097            0.0000000000
     29641      4233  TIP3      H2             23.3825917523       -7.5505202579      -38.8595957770  TIP3      4097            0.0000000000
     29642      4234  TIP3      OH2            23.2723375238       -2.5450954444      -26.2065563039  TIP3      4098            0.0000000000
     29643      4234  TIP3      H1             22.3580597168       -2.3500895669      -26.5197167320  TIP3      4098            0.0000000000
     29644      4234  TIP3      H2             23.8040145853       -2.5124163973      -27.0363242576  TIP3      4098            0.0000000000
     29645      4235  TIP3      OH2            22.1444610579        0.2087053912      -38.3526768787  TIP3      4099            0.0000000000
     29646      4235  TIP3      H1             21.4767260765       -0.4555443858      -38.1625493140  TIP3      4099            0.0000000000
     29647      4235  TIP3      H2             22.2730714019        0.1378860617      -39.3304779408  TIP3      4099            0.0000000000
     29648      4236  TIP3      OH2            18.5687946447       -4.6633641665      -31.5709400430  TIP3      4100            0.0000000000
     29649      4236  TIP3      H1             17.6960862432       -4.9826814449      -31.8790679282  TIP3      4100            0.0000000000
     29650      4236  TIP3      H2             19.1584787791       -5.2682520033      -32.0753898764  TIP3      4100            0.0000000000
     29651      4237  TIP3      OH2            10.7883310754       -0.3578741838      -35.4596819561  TIP3      4101            0.0000000000
     29652      4237  TIP3      H1             11.0430394741        0.5660422618      -35.6526897457  TIP3      4101            0.0000000000
     29653      4237  TIP3      H2              9.9256073257       -0.4130364754      -35.8935666169  TIP3      4101            0.0000000000
     29654      4238  TIP3      OH2             6.6309764249       -5.3711981597      -39.9223419672  TIP3      4102            0.0000000000
     29655      4238  TIP3      H1              6.8584713593       -4.4237454462      -39.8880290173  TIP3      4102            0.0000000000
     29656      4238  TIP3      H2              5.7096729947       -5.3387532794      -40.2403520425  TIP3      4102            0.0000000000
     29657      4239  TIP3      OH2            12.3460409294       -2.4505266805      -35.9727443849  TIP3      4103            0.0000000000
     29658      4239  TIP3      H1             11.7997774432       -1.6292290931      -35.8879694013  TIP3      4103            0.0000000000
     29659      4239  TIP3      H2             13.2380225404       -2.0786133921      -35.8991339926  TIP3      4103            0.0000000000
     29660      4240  TIP3      OH2            13.0091741178        1.7547570813      -29.1284898008  TIP3      4104            0.0000000000
     29661      4240  TIP3      H1             13.7668914241        2.3152671754      -29.3820827414  TIP3      4104            0.0000000000
     29662      4240  TIP3      H2             13.4640930134        1.1687895172      -28.4886351703  TIP3      4104            0.0000000000
     29663      4241  TIP3      OH2            11.3756306182        2.1412846831      -36.3918421322  TIP3      4105            0.0000000000
     29664      4241  TIP3      H1             10.4038317339        2.2384074031      -36.3420136113  TIP3      4105            0.0000000000
     29665      4241  TIP3      H2             11.6372949840        2.9955902846      -35.9792564076  TIP3      4105            0.0000000000
     29666      4242  TIP3      OH2            16.2632924722       -2.5441007289      -29.9276679281  TIP3      4106            0.0000000000
     29667      4242  TIP3      H1             15.8592737945       -2.8803798813      -29.1026467064  TIP3      4106            0.0000000000
     29668      4242  TIP3      H2             16.7335415295       -3.3415646208      -30.2274599553  TIP3      4106            0.0000000000
     29669      4243  TIP3      OH2            18.5673365990       -1.1596399988      -40.4916067641  TIP3      4107            0.0000000000
     29670      4243  TIP3      H1             18.7905986177       -1.4643143581      -39.5864974887  TIP3      4107            0.0000000000
     29671      4243  TIP3      H2             17.8190348918       -1.7508623323      -40.6506760454  TIP3      4107            0.0000000000
     29672      4244  TIP3      OH2            19.5668947717        2.1258279909      -27.4753631698  TIP3      4108            0.0000000000
     29673      4244  TIP3      H1             18.7146579934        1.6853654251      -27.6447172801  TIP3      4108            0.0000000000
     29674      4244  TIP3      H2             19.6029146404        2.7149316534      -28.2521178541  TIP3      4108            0.0000000000
     29675      4245  TIP3      OH2            23.2110744605        3.1465747867      -40.5149733342  TIP3      4109            0.0000000000
     29676      4245  TIP3      H1             23.6411010662        3.7379880426      -41.1484063465  TIP3      4109            0.0000000000
     29677      4245  TIP3      H2             22.4945460924        3.7212605243      -40.1587974631  TIP3      4109            0.0000000000
     29678      4246  TIP3      OH2             7.4186349806      -10.9137948158      -28.1988248777  TIP3      4110            0.0000000000
     29679      4246  TIP3      H1              6.8046781613      -10.5092491541      -27.5785391779  TIP3      4110            0.0000000000
     29680      4246  TIP3      H2              7.3683596095      -11.8372054865      -27.8920862220  TIP3      4110            0.0000000000
     29681      4247  TIP3      OH2            19.5033035192       -2.6783245717      -38.3827775764  TIP3      4111            0.0000000000
     29682      4247  TIP3      H1             19.3869345020       -3.4894712820      -37.8481836455  TIP3      4111            0.0000000000
     29683      4247  TIP3      H2             20.4748668549       -2.7207658586      -38.5019062810  TIP3      4111            0.0000000000
     29684      4248  TIP3      OH2             7.1135015214        1.2823361066      -29.8637267349  TIP3      4112            0.0000000000
     29685      4248  TIP3      H1              7.6545884784        0.5567862801      -29.5136075875  TIP3      4112            0.0000000000
     29686      4248  TIP3      H2              7.2893766193        1.9695837548      -29.2030050769  TIP3      4112            0.0000000000
     29687      4249  TIP3      OH2            11.4785684691       -0.7483852669      -40.0354223032  TIP3      4113            0.0000000000
     29688      4249  TIP3      H1             12.0110310842       -1.2963134581      -39.4429965340  TIP3      4113            0.0000000000
     29689      4249  TIP3      H2             11.7305050009        0.1603840480      -39.7343693315  TIP3      4113            0.0000000000
     29690      4250  TIP3      OH2             8.5948145054       -3.2785177286      -39.0144330157  TIP3      4114            0.0000000000
     29691      4250  TIP3      H1              7.7655975625       -3.1208069021      -38.5260185173  TIP3      4114            0.0000000000
     29692      4250  TIP3      H2              8.5982224821       -2.5108243780      -39.6204768488  TIP3      4114            0.0000000000
     29693      4251  TIP3      OH2            15.8590675265      -11.0053620724      -28.8837359685  TIP3      4115            0.0000000000
     29694      4251  TIP3      H1             16.4074760473      -10.7377078415      -28.1379436130  TIP3      4115            0.0000000000
     29695      4251  TIP3      H2             15.7214736688      -11.9583919738      -28.6903144874  TIP3      4115            0.0000000000
     29696      4252  TIP3      OH2            16.5942484718      -11.3114930533      -37.4555267722  TIP3      4116            0.0000000000
     29697      4252  TIP3      H1             16.9682607536      -10.9576382453      -38.2890996030  TIP3      4116            0.0000000000
     29698      4252  TIP3      H2             17.1839257170      -10.9023035504      -36.7816703254  TIP3      4116            0.0000000000
     29699      4253  TIP3      OH2            14.4030448688        0.4102668005      -38.9546437251  TIP3      4117            0.0000000000
     29700      4253  TIP3      H1             13.7024744669        1.0940686547      -38.9814482752  TIP3      4117            0.0000000000
     29701      4253  TIP3      H2             15.0626167119        0.7840594154      -39.5594542169  TIP3      4117            0.0000000000
     29702      4254  TIP3      OH2            13.9660287308       -9.3908711699      -36.9421140826  TIP3      4118            0.0000000000
     29703      4254  TIP3      H1             14.7673289118       -8.8431788354      -36.8126777672  TIP3      4118            0.0000000000
     29704      4254  TIP3      H2             13.9720158284       -9.9960949127      -36.1672792125  TIP3      4118            0.0000000000
     29705      4255  TIP3      OH2            14.6578607365       -7.9727617496      -27.8153457125  TIP3      4119            0.0000000000
     29706      4255  TIP3      H1             14.6094974565       -7.6439246180      -26.8980799210  TIP3      4119            0.0000000000
     29707      4255  TIP3      H2             14.1999622721       -8.8313815051      -27.7609980704  TIP3      4119            0.0000000000
     29708      4256  TIP3      OH2            14.9755946334      -12.9030357034      -36.0776290611  TIP3      4120            0.0000000000
     29709      4256  TIP3      H1             14.4561612775      -12.2707245486      -35.5291213361  TIP3      4120            0.0000000000
     29710      4256  TIP3      H2             15.6750250437      -12.2873639244      -36.4128865376  TIP3      4120            0.0000000000
     29711      4257  TIP3      OH2            12.0243065099        1.6531992092      -38.9863948014  TIP3      4121            0.0000000000
     29712      4257  TIP3      H1             12.1045925556        2.5019721731      -39.4732792037  TIP3      4121            0.0000000000
     29713      4257  TIP3      H2             11.6835297269        1.9557462371      -38.1115437345  TIP3      4121            0.0000000000
     29714      4258  TIP3      OH2            10.4875491412      -11.6039575545      -39.1922063238  TIP3      4122            0.0000000000
     29715      4258  TIP3      H1             10.2189932007      -10.9422170162      -38.5461088797  TIP3      4122            0.0000000000
     29716      4258  TIP3      H2             11.3032057583      -11.9585447697      -38.7999761490  TIP3      4122            0.0000000000
     29717      4259  TIP3      OH2            20.5631815406      -10.8731367996      -27.1591440659  TIP3      4123            0.0000000000
     29718      4259  TIP3      H1             19.6618376018      -10.6716283144      -27.4898039338  TIP3      4123            0.0000000000
     29719      4259  TIP3      H2             21.0874442389      -10.6191244743      -27.9431921458  TIP3      4123            0.0000000000
     29720      4260  TIP3      OH2            19.7408642707       -6.7313779269      -32.9655708240  TIP3      4124            0.0000000000
     29721      4260  TIP3      H1             18.9407574451       -7.2824815943      -32.8872606294  TIP3      4124            0.0000000000
     29722      4260  TIP3      H2             20.3915846771       -7.2615972835      -32.4530027010  TIP3      4124            0.0000000000
     29723      4261  TIP3      OH2             8.8019394466       -1.1013499271      -40.7376020964  TIP3      4125            0.0000000000
     29724      4261  TIP3      H1              9.6352140734       -0.8103704644      -40.3185637752  TIP3      4125            0.0000000000
     29725      4261  TIP3      H2              9.1486906560       -1.6145889116      -41.4885866015  TIP3      4125            0.0000000000
     29726      4262  TIP3      OH2             6.6520454477       -8.1528599610      -41.5761163077  TIP3      4126            0.0000000000
     29727      4262  TIP3      H1              7.2692314064       -7.5014542325      -41.2134146065  TIP3      4126            0.0000000000
     29728      4262  TIP3      H2              5.8380380697       -7.6346656704      -41.6115752186  TIP3      4126            0.0000000000
     29729      4263  TIP3      OH2            20.1473700667        2.2082982958      -31.7571239370  TIP3      4127            0.0000000000
     29730      4263  TIP3      H1             19.9880968867        2.7758390203      -32.5290671839  TIP3      4127            0.0000000000
     29731      4263  TIP3      H2             21.1217095431        2.1251753300      -31.8250415827  TIP3      4127            0.0000000000
     29732      4264  TIP3      OH2             7.9382590092      -13.7320116997      -32.4204824081  TIP3      4128            0.0000000000
     29733      4264  TIP3      H1              7.8806328249      -14.0165092612      -33.3620864081  TIP3      4128            0.0000000000
     29734      4264  TIP3      H2              7.4814722436      -14.4940776130      -32.0127911709  TIP3      4128            0.0000000000
     29735      4265  TIP3      OH2             6.2602110265       -0.0603748820      -37.1539279284  TIP3      4129            0.0000000000
     29736      4265  TIP3      H1              5.8029521047        0.4862610345      -36.5010633676  TIP3      4129            0.0000000000
     29737      4265  TIP3      H2              6.5767231179        0.6678539453      -37.7434181157  TIP3      4129            0.0000000000
     29738      4266  TIP3      OH2             5.7924309766        3.6484506180      -25.5434149415  TIP3      4130            0.0000000000
     29739      4266  TIP3      H1              6.5851456111        3.2024089739      -25.8742112709  TIP3      4130            0.0000000000
     29740      4266  TIP3      H2              5.0920282148        3.0525577360      -25.8551654152  TIP3      4130            0.0000000000
     29741      4267  TIP3      OH2            10.7895498278        1.8051860587      -23.5898306384  TIP3      4131            0.0000000000
     29742      4267  TIP3      H1             11.7584515425        1.8234230587      -23.5461105420  TIP3      4131            0.0000000000
     29743      4267  TIP3      H2             10.6125745007        1.1647027690      -24.3146075082  TIP3      4131            0.0000000000
     29744      4268  TIP3      OH2            17.1692030593        0.9331707346      -24.9374900272  TIP3      4132            0.0000000000
     29745      4268  TIP3      H1             16.8290457803        0.0658139447      -24.5972966946  TIP3      4132            0.0000000000
     29746      4268  TIP3      H2             17.8865954932        1.1471207716      -24.2984372266  TIP3      4132            0.0000000000
     29747      4269  TIP3      OH2            19.6486421403        0.9447969236      -42.0091463062  TIP3      4133            0.0000000000
     29748      4269  TIP3      H1             19.3007746576        0.1755906536      -41.5036469190  TIP3      4133            0.0000000000
     29749      4269  TIP3      H2             20.6005939391        0.7338335379      -41.9916471195  TIP3      4133            0.0000000000
     29750      4270  TIP3      OH2             5.5500922477       -3.3906654069      -24.3300644650  TIP3      4134            0.0000000000
     29751      4270  TIP3      H1              5.5688098925       -4.3117521582      -24.6395777443  TIP3      4134            0.0000000000
     29752      4270  TIP3      H2              5.1258390697       -2.8949066454      -25.0717427260  TIP3      4134            0.0000000000
     29753      4271  TIP3      OH2            10.1719097358       -2.8306437472      -42.4557695081  TIP3      4135            0.0000000000
     29754      4271  TIP3      H1             10.6826773736       -2.8854335969      -41.6309774914  TIP3      4135            0.0000000000
     29755      4271  TIP3      H2             10.7890031886       -3.3008614121      -43.0573459199  TIP3      4135            0.0000000000
     29756      4272  TIP3      OH2            12.7519858608       -2.9574107421      -25.1299870756  TIP3      4136            0.0000000000
     29757      4272  TIP3      H1             12.5061379312       -2.3473675982      -25.8507447421  TIP3      4136            0.0000000000
     29758      4272  TIP3      H2             12.3033260453       -3.8046208365      -25.3288597406  TIP3      4136            0.0000000000
     29759      4273  TIP3      OH2            18.3344200269       -3.2798942725      -27.3064224146  TIP3      4137            0.0000000000
     29760      4273  TIP3      H1             19.1347511912       -2.7599707252      -27.5174027262  TIP3      4137            0.0000000000
     29761      4273  TIP3      H2             17.8150531353       -2.5071544149      -27.0047943274  TIP3      4137            0.0000000000
     29762      4274  TIP3      OH2             6.9304367399       -5.9257063919      -24.8504130185  TIP3      4138            0.0000000000
     29763      4274  TIP3      H1              7.2810204768       -6.8154511896      -24.9758994141  TIP3      4138            0.0000000000
     29764      4274  TIP3      H2              7.1201364447       -5.8094953929      -23.9018719397  TIP3      4138            0.0000000000
     29765      4275  TIP3      OH2            11.5875700347       -4.8720555606      -39.3892743134  TIP3      4139            0.0000000000
     29766      4275  TIP3      H1             10.7588914928       -5.2754073267      -39.0553845743  TIP3      4139            0.0000000000
     29767      4275  TIP3      H2             11.7160314138       -5.3687366241      -40.2163525557  TIP3      4139            0.0000000000
     29768      4276  TIP3      OH2            10.2337404283       -7.1095993849      -28.0530985836  TIP3      4140            0.0000000000
     29769      4276  TIP3      H1              9.7287946994       -6.2900717015      -27.8795936119  TIP3      4140            0.0000000000
     29770      4276  TIP3      H2             11.0694957422       -6.7441270242      -28.4010077410  TIP3      4140            0.0000000000
     29771      4277  TIP3      OH2            12.7699497864       -6.6916947533      -41.6738088330  TIP3      4141            0.0000000000
     29772      4277  TIP3      H1             13.0490234679       -6.3340407873      -42.5316467688  TIP3      4141            0.0000000000
     29773      4277  TIP3      H2             13.6449836868       -6.7789204886      -41.2378048322  TIP3      4141            0.0000000000
     29774      4278  TIP3      OH2            16.3278493963       -3.9782928709      -24.3528960590  TIP3      4142            0.0000000000
     29775      4278  TIP3      H1             16.5612630559       -4.6487118721      -25.0090133621  TIP3      4142            0.0000000000
     29776      4278  TIP3      H2             15.9583064340       -4.5446320703      -23.6399084346  TIP3      4142            0.0000000000
     29777      4279  TIP3      OH2            22.6508255847       -4.0066955829      -42.5032332951  TIP3      4143            0.0000000000
     29778      4279  TIP3      H1             22.0704942391       -3.7827765185      -43.2496371383  TIP3      4143            0.0000000000
     29779      4279  TIP3      H2             23.2399598921       -3.2306991727      -42.4563366129  TIP3      4143            0.0000000000
     29780      4280  TIP3      OH2            11.4604469876       -9.2664103230      -26.9176048021  TIP3      4144            0.0000000000
     29781      4280  TIP3      H1             11.6785240558       -9.9895621129      -27.5453975483  TIP3      4144            0.0000000000
     29782      4280  TIP3      H2             11.0626068157       -8.5682860171      -27.4862344686  TIP3      4144            0.0000000000
     29783      4281  TIP3      OH2            11.9944595926      -11.2608806556      -28.6995343735  TIP3      4145            0.0000000000
     29784      4281  TIP3      H1             12.5690790924      -10.6830641797      -29.2550518129  TIP3      4145            0.0000000000
     29785      4281  TIP3      H2             11.1656621731      -11.2020564879      -29.2187049531  TIP3      4145            0.0000000000
     29786      4282  TIP3      OH2            12.7610879340       -5.5174436006      -28.9248435342  TIP3      4146            0.0000000000
     29787      4282  TIP3      H1             13.6850546397       -5.2173378847      -28.9069742076  TIP3      4146            0.0000000000
     29788      4282  TIP3      H2             12.3143712592       -4.7043893880      -29.2433813885  TIP3      4146            0.0000000000
     29789      4283  TIP3      OH2            17.4179318592       -8.2534663753      -24.0781206291  TIP3      4147            0.0000000000
     29790      4283  TIP3      H1             17.6763927186       -9.1341767115      -23.7707041644  TIP3      4147            0.0000000000
     29791      4283  TIP3      H2             18.1294101692       -8.0529338382      -24.7054705933  TIP3      4147            0.0000000000
     29792      4284  TIP3      OH2            19.2146070902       -4.9814776361      -25.3075487386  TIP3      4148            0.0000000000
     29793      4284  TIP3      H1             18.8042326773       -4.3248322756      -25.9012985649  TIP3      4148            0.0000000000
     29794      4284  TIP3      H2             20.1499789580       -4.8608793680      -25.5228201881  TIP3      4148            0.0000000000
     29795      4285  TIP3      OH2             9.5549094214       -8.4852275983      -24.8243280756  TIP3      4149            0.0000000000
     29796      4285  TIP3      H1              8.7904009327       -9.0427149374      -25.0547609446  TIP3      4149            0.0000000000
     29797      4285  TIP3      H2             10.1844644191       -8.7281002187      -25.5296993930  TIP3      4149            0.0000000000
     29798      4286  TIP3      OH2            12.6641324018      -13.7869497257      -28.7728025042  TIP3      4150            0.0000000000
     29799      4286  TIP3      H1             12.3454964035      -12.8544075709      -28.7472598892  TIP3      4150            0.0000000000
     29800      4286  TIP3      H2             11.8223800817      -14.2407669770      -28.9605421994  TIP3      4150            0.0000000000
     29801      4287  TIP3      OH2            13.4613971349       -9.2111083582      -24.9754720799  TIP3      4151            0.0000000000
     29802      4287  TIP3      H1             12.9876214816       -9.6693717479      -24.2596690660  TIP3      4151            0.0000000000
     29803      4287  TIP3      H2             12.8017243484       -9.3013127341      -25.6968982116  TIP3      4151            0.0000000000
     29804      4288  TIP3      OH2            16.6330495352      -10.6065999091      -25.5904296389  TIP3      4152            0.0000000000
     29805      4288  TIP3      H1             15.6786973811      -10.5694228402      -25.4383325852  TIP3      4152            0.0000000000
     29806      4288  TIP3      H2             16.9534269217      -10.9191963617      -24.7115790428  TIP3      4152            0.0000000000
     29807      4289  TIP3      OH2            17.6800070955      -11.8654120717      -23.3922110073  TIP3      4153            0.0000000000
     29808      4289  TIP3      H1             17.4213963585      -12.7567542884      -23.7120945092  TIP3      4153            0.0000000000
     29809      4289  TIP3      H2             18.1775541360      -12.0994024680      -22.5911196576  TIP3      4153            0.0000000000
     29810      4290  TIP3      OH2             7.7074115739      -10.4209932718      -24.9926273069  TIP3      4154            0.0000000000
     29811      4290  TIP3      H1              7.6683688820      -11.3172068835      -25.3343494526  TIP3      4154            0.0000000000
     29812      4290  TIP3      H2              7.9933586441      -10.5666332033      -24.0639815054  TIP3      4154            0.0000000000
     29813      4291  TIP3      OH2            12.5562478682      -14.0307700238      -26.1236395058  TIP3      4155            0.0000000000
     29814      4291  TIP3      H1             12.9916161706      -14.8835358519      -25.9337693370  TIP3      4155            0.0000000000
     29815      4291  TIP3      H2             12.6550486835      -13.9805018579      -27.0990993578  TIP3      4155            0.0000000000
     29816      4292  TIP3      OH2            12.0813781656      -12.0660118155      -24.3447041696  TIP3      4156            0.0000000000
     29817      4292  TIP3      H1             12.2967516162      -12.8240504675      -24.9400200217  TIP3      4156            0.0000000000
     29818      4292  TIP3      H2             11.4241523143      -12.4446205434      -23.7471113108  TIP3      4156            0.0000000000
     29819      4293  TIP3      OH2            12.5712348595        3.6478575466      -40.8113011508  TIP3      4157            0.0000000000
     29820      4293  TIP3      H1             13.2366164277        4.2318857707      -40.4140774592  TIP3      4157            0.0000000000
     29821      4293  TIP3      H2             12.6247001456        3.9359096728      -41.7406933683  TIP3      4157            0.0000000000
     29822      4294  TIP3      OH2             5.9625287279       -2.3891767061      -41.1764356447  TIP3      4158            0.0000000000
     29823      4294  TIP3      H1              6.5821870663       -1.6830086596      -41.4244010805  TIP3      4158            0.0000000000
     29824      4294  TIP3      H2              5.1402358559       -2.0645493197      -41.5723145966  TIP3      4158            0.0000000000
     29825      4295  TIP3      OH2             4.9371534938        3.4671161814      -36.0260343396  TIP3      4159            0.0000000000
     29826      4295  TIP3      H1              4.1995215836        2.9263169805      -36.3892400821  TIP3      4159            0.0000000000
     29827      4295  TIP3      H2              5.2881322556        2.9032612006      -35.2997327121  TIP3      4159            0.0000000000
     29828      4296  TIP3      OH2             5.8517725957        1.8951505256      -34.0678489509  TIP3      4160            0.0000000000
     29829      4296  TIP3      H1              5.2517943472        1.4644563257      -33.4350676836  TIP3      4160            0.0000000000
     29830      4296  TIP3      H2              6.3856550083        2.4038052745      -33.4154894603  TIP3      4160            0.0000000000
     29831      4297  TIP3      OH2            22.8722618167        2.6306727924      -31.7124910476  TIP3      4161            0.0000000000
     29832      4297  TIP3      H1             23.5183338129        2.7371769130      -31.0015469524  TIP3      4161            0.0000000000
     29833      4297  TIP3      H2             22.5850228098        3.5472899707      -31.8700577483  TIP3      4161            0.0000000000
     29834      4298  TIP3      OH2            22.8351243373        2.4205457694      -28.3625075443  TIP3      4162            0.0000000000
     29835      4298  TIP3      H1             22.5199167729        1.6514940984      -28.8847533889  TIP3      4162            0.0000000000
     29836      4298  TIP3      H2             23.2911041641        1.9901173913      -27.6164481747  TIP3      4162            0.0000000000
     29837      4299  TIP3      OH2            21.7701576418       -1.7702990109      -23.1258153161  TIP3      4163            0.0000000000
     29838      4299  TIP3      H1             20.9446310747       -1.5872985904      -22.6215228526  TIP3      4163            0.0000000000
     29839      4299  TIP3      H2             22.2105148591       -0.8981483393      -23.0447370027  TIP3      4163            0.0000000000
     29840      4300  TIP3      OH2            22.1456213702       -3.1720381709      -38.5034086085  TIP3      4164            0.0000000000
     29841      4300  TIP3      H1             22.9651887959       -2.7230333774      -38.2006433094  TIP3      4164            0.0000000000
     29842      4300  TIP3      H2             22.0484476614       -3.8761993844      -37.8334149803  TIP3      4164            0.0000000000
     29843      4301  TIP3      OH2            23.0154722726       -5.3954742489      -36.0522021912  TIP3      4165            0.0000000000
     29844      4301  TIP3      H1             22.2078906514       -5.8070969947      -35.6835819341  TIP3      4165            0.0000000000
     29845      4301  TIP3      H2             23.5607377799       -5.2524512191      -35.2460226067  TIP3      4165            0.0000000000
     29846      4302  TIP3      OH2            22.5942384808       -2.6405869529      -31.6128213425  TIP3      4166            0.0000000000
     29847      4302  TIP3      H1             23.3322557858       -3.2869888112      -31.6572803746  TIP3      4166            0.0000000000
     29848      4302  TIP3      H2             22.9608408088       -1.8789606295      -32.0971695807  TIP3      4166            0.0000000000
     29849      4303  TIP3      OH2            21.4013518455        0.1835344508      -29.2649932054  TIP3      4167            0.0000000000
     29850      4303  TIP3      H1             20.7075967477        0.7023854241      -28.8266464659  TIP3      4167            0.0000000000
     29851      4303  TIP3      H2             20.9734360160       -0.0881478843      -30.1109446608  TIP3      4167            0.0000000000
     29852      4304  TIP3      OH2            23.2613879252       -5.2897936517      -39.9509297277  TIP3      4168            0.0000000000
     29853      4304  TIP3      H1             22.7193852441       -5.1175144327      -40.7408432984  TIP3      4168            0.0000000000
     29854      4304  TIP3      H2             23.1998709339       -4.4150380936      -39.5237072152  TIP3      4168            0.0000000000
     29855      4305  TIP3      OH2            21.9554847707       -8.4746775184      -41.4233105503  TIP3      4169            0.0000000000
     29856      4305  TIP3      H1             21.8256926135       -8.1967944831      -42.3508715554  TIP3      4169            0.0000000000
     29857      4305  TIP3      H2             21.3628894511       -9.2284192248      -41.3457638360  TIP3      4169            0.0000000000
     29858      4306  TIP3      OH2            20.8453065844       -6.9141501795      -35.4428700729  TIP3      4170            0.0000000000
     29859      4306  TIP3      H1             20.5554083451       -7.8317538329      -35.5936353070  TIP3      4170            0.0000000000
     29860      4306  TIP3      H2             20.5416338317       -6.7887935709      -34.5136213894  TIP3      4170            0.0000000000
     29861      4307  TIP3      OH2             5.6021947586       -4.2875250503      -31.5084960326  TIP3      4171            0.0000000000
     29862      4307  TIP3      H1              5.4990614489       -4.6023585239      -32.4349714977  TIP3      4171            0.0000000000
     29863      4307  TIP3      H2              6.4357822709       -4.7683862489      -31.2982640300  TIP3      4171            0.0000000000
     29864      4308  TIP3      OH2            21.8929779712       -5.0871437741      -26.2558960265  TIP3      4172            0.0000000000
     29865      4308  TIP3      H1             22.2519926287       -5.9837700203      -26.0551802422  TIP3      4172            0.0000000000
     29866      4308  TIP3      H2             22.5692115541       -4.6800784425      -26.8237295276  TIP3      4172            0.0000000000
     29867      4309  TIP3      OH2            22.8827343624       -7.4472452083      -25.4209804850  TIP3      4173            0.0000000000
     29868      4309  TIP3      H1             22.0922408916       -7.9668176107      -25.1852082096  TIP3      4173            0.0000000000
     29869      4309  TIP3      H2             23.5404603437       -8.1697086917      -25.5539779774  TIP3      4173            0.0000000000
     29870      4310  TIP3      OH2            20.1634070645       -9.3028807924      -36.7390251336  TIP3      4174            0.0000000000
     29871      4310  TIP3      H1             20.1245349971      -10.2857244312      -36.6780156568  TIP3      4174            0.0000000000
     29872      4310  TIP3      H2             20.9520152215       -9.2121539787      -37.2896785380  TIP3      4174            0.0000000000
     29873      4311  TIP3      OH2            21.4158426324       -8.3378486907      -31.5248386051  TIP3      4175            0.0000000000
     29874      4311  TIP3      H1             22.3962055378       -8.2654728915      -31.5273022687  TIP3      4175            0.0000000000
     29875      4311  TIP3      H2             21.2771087294       -8.2273909710      -30.5634678273  TIP3      4175            0.0000000000
     29876      4312  TIP3      OH2            21.0298616304       -7.8649914546      -28.9090462654  TIP3      4176            0.0000000000
     29877      4312  TIP3      H1             20.0658888358       -7.7540329983      -28.7576031334  TIP3      4176            0.0000000000
     29878      4312  TIP3      H2             21.3709297676       -6.9765274665      -28.7059916673  TIP3      4176            0.0000000000
     29879      4313  TIP3      OH2             5.3350158669       -9.2971012337      -25.3666528020  TIP3      4177            0.0000000000
     29880      4313  TIP3      H1              6.2784284544       -9.5253527825      -25.2515607263  TIP3      4177            0.0000000000
     29881      4313  TIP3      H2              4.9318380881      -10.1925168739      -25.4275647998  TIP3      4177            0.0000000000
     29882      4314  TIP3      OH2            23.1898042144      -13.3889108840      -23.8876813954  TIP3      4178            0.0000000000
     29883      4314  TIP3      H1             24.0002367887      -13.8045601094      -24.2189546676  TIP3      4178            0.0000000000
     29884      4314  TIP3      H2             23.1771138440      -12.5145526615      -24.3030819882  TIP3      4178            0.0000000000
     29885      4315  TIP3      OH2            20.3308563263      -12.0642878326      -36.8906413799  TIP3      4179            0.0000000000
     29886      4315  TIP3      H1             21.1309729309      -12.2945650767      -36.3746167423  TIP3      4179            0.0000000000
     29887      4315  TIP3      H2             20.1534937692      -12.9062264663      -37.3405028433  TIP3      4179            0.0000000000
     29888      4316  TIP3      OH2             6.8161750756      -11.4323325418      -31.7117335723  TIP3      4180            0.0000000000
     29889      4316  TIP3      H1              7.3662928265      -12.1883080069      -32.0449975166  TIP3      4180            0.0000000000
     29890      4316  TIP3      H2              7.4218558702      -10.6688687541      -31.7697997283  TIP3      4180            0.0000000000
     29891      4317  TIP3      OH2             4.8344064773       -8.1906014403      -31.2426575485  TIP3      4181            0.0000000000
     29892      4317  TIP3      H1              5.1106724325       -8.9581027795      -31.7723701574  TIP3      4181            0.0000000000
     29893      4317  TIP3      H2              5.5220430817       -7.5444748188      -31.4832388002  TIP3      4181            0.0000000000
     29894      4318  TIP3      OH2            22.4922502010      -11.3639786148      -25.5294109700  TIP3      4182            0.0000000000
     29895      4318  TIP3      H1             21.6499647194      -11.1364367319      -25.9901865149  TIP3      4182            0.0000000000
     29896      4318  TIP3      H2             22.6557830889      -12.1614479780      -26.0559377689  TIP3      4182            0.0000000000
     29897      4319  TIP3      OH2            22.7509877507      -11.5184350129      -40.6130385944  TIP3      4183            0.0000000000
     29898      4319  TIP3      H1             22.4423793160      -11.6071467427      -41.5254847037  TIP3      4183            0.0000000000
     29899      4319  TIP3      H2             23.5435230330      -10.9737565451      -40.7605966986  TIP3      4183            0.0000000000
     29900      4320  TIP3      OH2             5.4249799044      -12.1378014562      -37.5056579366  TIP3      4184            0.0000000000
     29901      4320  TIP3      H1              4.5109527488      -12.0923109982      -37.8117714755  TIP3      4184            0.0000000000
     29902      4320  TIP3      H2              5.8550984022      -11.6839057316      -38.2629806828  TIP3      4184            0.0000000000
     29903      4321  TIP3      OH2            20.2357732126        3.0787966011      -35.3047627381  TIP3      4185            0.0000000000
     29904      4321  TIP3      H1             20.8888024453        3.0011470407      -36.0374004466  TIP3      4185            0.0000000000
     29905      4321  TIP3      H2             20.6216853936        3.7390321508      -34.6965226084  TIP3      4185            0.0000000000
     29906      4322  TIP3      OH2             5.1882457557      -13.3785550449      -29.3528117475  TIP3      4186            0.0000000000
     29907      4322  TIP3      H1              4.8659762427      -13.8875542135      -28.5840701948  TIP3      4186            0.0000000000
     29908      4322  TIP3      H2              5.1567045483      -12.4647267032      -29.0334670253  TIP3      4186            0.0000000000
     29909      4323  TIP3      OH2             6.7058803513        0.0934412809      -25.0135091563  TIP3      4187            0.0000000000
     29910      4323  TIP3      H1              6.0275247869        0.5936211106      -25.5148371198  TIP3      4187            0.0000000000
     29911      4323  TIP3      H2              6.6873391673       -0.7510437121      -25.4883414887  TIP3      4187            0.0000000000
     29912      4324  TIP3      OH2            10.3365913888        1.6537035559      -28.2975701983  TIP3      4188            0.0000000000
     29913      4324  TIP3      H1             10.2156341597        2.4548183904      -28.8510931545  TIP3      4188            0.0000000000
     29914      4324  TIP3      H2             11.2756384166        1.4598412395      -28.5047044344  TIP3      4188            0.0000000000
     29915      4325  TIP3      OH2            14.4112336511        2.6742666180      -26.3638442090  TIP3      4189            0.0000000000
     29916      4325  TIP3      H1             14.4129031787        2.3045778159      -25.4493334442  TIP3      4189            0.0000000000
     29917      4325  TIP3      H2             15.3196969909        3.0320018369      -26.4410160059  TIP3      4189            0.0000000000
     29918      4326  TIP3      OH2            16.6583750269        4.1886381540      -26.6962914933  TIP3      4190            0.0000000000
     29919      4326  TIP3      H1             17.5018822621        3.9571931257      -27.1182768120  TIP3      4190            0.0000000000
     29920      4326  TIP3      H2             16.9055920757        4.2394811040      -25.7513374256  TIP3      4190            0.0000000000
     29921      4327  TIP3      OH2            21.7843021635      -13.8760330518      -27.4132983825  TIP3      4191            0.0000000000
     29922      4327  TIP3      H1             20.9315663433      -13.6257045552      -27.8065254070  TIP3      4191            0.0000000000
     29923      4327  TIP3      H2             21.8992038990      -14.7886108191      -27.7558078993  TIP3      4191            0.0000000000
     29924      4328  TIP3      OH2             7.4461163048        4.6807096072      -29.1123281643  TIP3      4192            0.0000000000
     29925      4328  TIP3      H1              6.7226333858        4.9185339912      -29.7178607449  TIP3      4192            0.0000000000
     29926      4328  TIP3      H2              7.3442141067        5.4047904051      -28.4812961192  TIP3      4192            0.0000000000
     29927      4329  TIP3      OH2             9.7734959043        3.7563480229      -30.0056038540  TIP3      4193            0.0000000000
     29928      4329  TIP3      H1              8.8888647324        4.0450538367      -29.6693998220  TIP3      4193            0.0000000000
     29929      4329  TIP3      H2              9.9280409729        4.4243178591      -30.6993554486  TIP3      4193            0.0000000000
     29930      4330  TIP3      OH2            15.0004408397        3.3629660937      -30.7544502730  TIP3      4194            0.0000000000
     29931      4330  TIP3      H1             14.2396403262        3.7635353920      -31.2042226547  TIP3      4194            0.0000000000
     29932      4330  TIP3      H2             15.1704359017        4.0540334596      -30.0651612617  TIP3      4194            0.0000000000
     29933      4331  TIP3      OH2            17.0229334111        2.1382787913      -29.3692776331  TIP3      4195            0.0000000000
     29934      4331  TIP3      H1             16.4132034878        2.4646494337      -30.0655351895  TIP3      4195            0.0000000000
     29935      4331  TIP3      H2             17.7231046881        2.8108061922      -29.4731521472  TIP3      4195            0.0000000000
     29936      4332  TIP3      OH2            19.2451952459        3.8071124392      -29.7745984339  TIP3      4196            0.0000000000
     29937      4332  TIP3      H1             19.5180691423        4.6885957392      -30.1011892460  TIP3      4196            0.0000000000
     29938      4332  TIP3      H2             19.6053372609        3.2397976833      -30.4891164503  TIP3      4196            0.0000000000
     29939      4333  TIP3      OH2             7.2935631293        2.8330733750      -32.0009924288  TIP3      4197            0.0000000000
     29940      4333  TIP3      H1              7.0235812192        2.3095856993      -31.2132695121  TIP3      4197            0.0000000000
     29941      4333  TIP3      H2              8.2603644685        2.6836823625      -31.9992141709  TIP3      4197            0.0000000000
     29942      4334  TIP3      OH2             9.7461950586        2.2498894361      -33.2981279924  TIP3      4198            0.0000000000
     29943      4334  TIP3      H1              9.2654744252        1.4073813183      -33.1543797815  TIP3      4198            0.0000000000
     29944      4334  TIP3      H2             10.5203723771        2.0847957760      -32.7091874005  TIP3      4198            0.0000000000
     29945      4335  TIP3      OH2            11.5527539678        1.5063827915      -31.5318210162  TIP3      4199            0.0000000000
     29946      4335  TIP3      H1             12.0773749076        0.7312178936      -31.7853552775  TIP3      4199            0.0000000000
     29947      4335  TIP3      H2             11.9397771365        1.7569353485      -30.6722004583  TIP3      4199            0.0000000000
     29948      4336  TIP3      OH2            14.6708265540      -13.0648855012      -33.2131237891  TIP3      4200            0.0000000000
     29949      4336  TIP3      H1             13.9848869529      -13.6962636951      -32.9142377885  TIP3      4200            0.0000000000
     29950      4336  TIP3      H2             15.2656962743      -13.6385067623      -33.7226374126  TIP3      4200            0.0000000000
     29951      4337  TIP3      OH2            20.5718189774      -14.0818738993      -33.1356406234  TIP3      4201            0.0000000000
     29952      4337  TIP3      H1             21.2862277534      -13.5645891280      -33.5624856816  TIP3      4201            0.0000000000
     29953      4337  TIP3      H2             19.7964719247      -13.8481898875      -33.7010556771  TIP3      4201            0.0000000000
     29954      4338  TIP3      OH2            22.2839855978      -12.9345702523      -34.9434240959  TIP3      4202            0.0000000000
     29955      4338  TIP3      H1             22.8818338821      -13.5821034398      -35.3742652401  TIP3      4202            0.0000000000
     29956      4338  TIP3      H2             22.8619182671      -12.1284196359      -34.9253404695  TIP3      4202            0.0000000000
     29957      4339  TIP3      OH2             7.5846269513      -14.2970611769      -35.0818048269  TIP3      4203            0.0000000000
     29958      4339  TIP3      H1              6.7125097202      -14.3583972089      -35.5305440065  TIP3      4203            0.0000000000
     29959      4339  TIP3      H2              7.9335064035      -15.1872585544      -35.3153391387  TIP3      4203            0.0000000000
     29960      4340  TIP3      OH2             6.1408767874      -14.0218608284      -39.6181083961  TIP3      4204            0.0000000000
     29961      4340  TIP3      H1              6.7071889825      -13.3197284618      -40.0207682132  TIP3      4204            0.0000000000
     29962      4340  TIP3      H2              5.8795007718      -13.6475054593      -38.7548575643  TIP3      4204            0.0000000000
     29963      4341  TIP3      OH2            12.2838355710      -14.7719032614      -35.1327819344  TIP3      4205            0.0000000000
     29964      4341  TIP3      H1             13.0927525772      -14.4724693870      -35.5856453313  TIP3      4205            0.0000000000
     29965      4341  TIP3      H2             12.5106801422      -14.7739748463      -34.1798798041  TIP3      4205            0.0000000000
     29966      4342  TIP3      OH2            18.0080293057      -13.6949037749      -34.3732898095  TIP3      4206            0.0000000000
     29967      4342  TIP3      H1             17.5761805542      -13.4200654845      -35.1899894729  TIP3      4206            0.0000000000
     29968      4342  TIP3      H2             17.5599824417      -14.5581700460      -34.2086688970  TIP3      4206            0.0000000000
     29969      4343  TIP3      OH2            19.1995328937      -14.1131550047      -38.9798899771  TIP3      4207            0.0000000000
     29970      4343  TIP3      H1             18.5830404247      -13.3688169328      -38.9922804727  TIP3      4207            0.0000000000
     29971      4343  TIP3      H2             18.7806200245      -14.7082394261      -38.3096054744  TIP3      4207            0.0000000000
     29972      4344  TIP3      OH2             6.3719317338        2.2754399987      -38.5510850567  TIP3      4208            0.0000000000
     29973      4344  TIP3      H1              5.5360505059        2.3605644210      -39.0517645392  TIP3      4208            0.0000000000
     29974      4344  TIP3      H2              6.6763819516        3.2024056572      -38.6439026362  TIP3      4208            0.0000000000
     29975      4345  TIP3      OH2             8.1885592069      -12.6186229087      -40.9404800858  TIP3      4209            0.0000000000
     29976      4345  TIP3      H1              8.8251653824      -13.3162279490      -41.1796373239  TIP3      4209            0.0000000000
     29977      4345  TIP3      H2              8.7298764916      -12.0481393082      -40.3688748485  TIP3      4209            0.0000000000
     29978      4346  TIP3      OH2            13.4994543899      -11.6416932620      -38.4547842497  TIP3      4210            0.0000000000
     29979      4346  TIP3      H1             14.2124467313      -12.0587365239      -37.9502434275  TIP3      4210            0.0000000000
     29980      4346  TIP3      H2             13.5519544978      -10.7370571250      -38.0795922027  TIP3      4210            0.0000000000
     29981      4347  TIP3      OH2            15.3090120403        3.8787899899      -40.5772850023  TIP3      4211            0.0000000000
     29982      4347  TIP3      H1             16.2619501852        3.9436215789      -40.7963396835  TIP3      4211            0.0000000000
     29983      4347  TIP3      H2             15.1022076303        3.0219460053      -40.9790525995  TIP3      4211            0.0000000000
     29984      4348  TIP3      OH2            21.6892698720        2.6179393046      -37.4264363813  TIP3      4212            0.0000000000
     29985      4348  TIP3      H1             21.7926012927        1.7620937450      -37.9121663966  TIP3      4212            0.0000000000
     29986      4348  TIP3      H2             21.6160642783        3.2506432708      -38.1757969457  TIP3      4212            0.0000000000
     29987      4349  TIP3      OH2             7.0161680311      -13.2957973390      -26.8066920007  TIP3      4213            0.0000000000
     29988      4349  TIP3      H1              6.5683538884      -13.9463611730      -26.2218341264  TIP3      4213            0.0000000000
     29989      4349  TIP3      H2              7.9461707382      -13.4406871113      -26.5785560249  TIP3      4213            0.0000000000
     29990      4350  TIP3      OH2             9.3959056942      -13.4474991298      -23.7529473933  TIP3      4214            0.0000000000
     29991      4350  TIP3      H1             10.0788550308      -13.7786709795      -24.3643876520  TIP3      4214            0.0000000000
     29992      4350  TIP3      H2              8.7888089114      -14.2050592154      -23.7756685188  TIP3      4214            0.0000000000
     29993      4351  TIP3      OH2             8.5922064883        3.4346177918      -41.5589229829  TIP3      4215            0.0000000000
     29994      4351  TIP3      H1              7.7132910745        3.7397754765      -41.8597602021  TIP3      4215            0.0000000000
     29995      4351  TIP3      H2              8.4029730248        2.6031169390      -41.1211219701  TIP3      4215            0.0000000000
     29996      4352  TIP3      OH2            17.5589438480      -14.5151067367      -24.2635146973  TIP3      4216            0.0000000000
     29997      4352  TIP3      H1             17.2301833057      -15.3970075504      -24.0368743568  TIP3      4216            0.0000000000
     29998      4352  TIP3      H2             18.5218134622      -14.6943742798      -24.2591459560  TIP3      4216            0.0000000000
     29999      4353  TIP3      OH2            21.1544869039        1.4717836567      -25.3699583592  TIP3      4217            0.0000000000
     30000      4353  TIP3      H1             20.5336263121        1.4129784585      -26.1333263192  TIP3      4217            0.0000000000
     30001      4353  TIP3      H2             21.2003686182        2.4455395212      -25.2814646108  TIP3      4217            0.0000000000
     30002      4354  TIP3      OH2            27.1843974652       -5.4592903722      -30.9412751394  TIP3      4218            0.0000000000
     30003      4354  TIP3      H1             27.1439545636       -6.3366302371      -30.5300819600  TIP3      4218            0.0000000000
     30004      4354  TIP3      H2             27.7278990101       -4.9612500586      -30.2992627501  TIP3      4218            0.0000000000
     30005      4355  TIP3      OH2            27.9480009665       -0.5061266183      -32.3474748664  TIP3      4219            0.0000000000
     30006      4355  TIP3      H1             27.6108638810       -1.3957675034      -32.5569546423  TIP3      4219            0.0000000000
     30007      4355  TIP3      H2             28.9077578805       -0.6730566124      -32.4473532402  TIP3      4219            0.0000000000
     30008      4356  TIP3      OH2            24.3941906471       -7.7862442991      -36.4980070141  TIP3      4220            0.0000000000
     30009      4356  TIP3      H1             24.0314398318       -6.8849490131      -36.3948010307  TIP3      4220            0.0000000000
     30010      4356  TIP3      H2             23.6733685662       -8.2260308024      -36.9732883793  TIP3      4220            0.0000000000
     30011      4357  TIP3      OH2            24.8324558843       -5.3333065253      -34.0675792995  TIP3      4221            0.0000000000
     30012      4357  TIP3      H1             25.1715937307       -6.2547751577      -33.9960237604  TIP3      4221            0.0000000000
     30013      4357  TIP3      H2             25.6042200578       -4.8282856248      -34.3732319405  TIP3      4221            0.0000000000
     30014      4358  TIP3      OH2            32.6541161108       -2.7858906387      -30.9872360990  TIP3      4222            0.0000000000
     30015      4358  TIP3      H1             33.4629154296       -3.2892572811      -31.2003569182  TIP3      4222            0.0000000000
     30016      4358  TIP3      H2             32.9521729358       -1.8694961949      -30.9795829737  TIP3      4222            0.0000000000
     30017      4359  TIP3      OH2            29.1496737733      -10.6715453458      -34.3698816986  TIP3      4223            0.0000000000
     30018      4359  TIP3      H1             29.3632061090       -9.8418470371      -34.8647485827  TIP3      4223            0.0000000000
     30019      4359  TIP3      H2             28.7148581562      -11.1928472184      -35.0817382350  TIP3      4223            0.0000000000
     30020      4360  TIP3      OH2            25.7201723892       -8.0163316963      -33.4982254909  TIP3      4224            0.0000000000
     30021      4360  TIP3      H1             26.3209353322       -8.4992099251      -32.9100503671  TIP3      4224            0.0000000000
     30022      4360  TIP3      H2             26.1009141991       -8.2239806370      -34.3738122368  TIP3      4224            0.0000000000
     30023      4361  TIP3      OH2            30.7888894471       -6.5324003999      -34.3498868691  TIP3      4225            0.0000000000
     30024      4361  TIP3      H1             31.5178323193       -7.0854042081      -33.9918889758  TIP3      4225            0.0000000000
     30025      4361  TIP3      H2             30.2587275049       -7.2606866523      -34.7360960138  TIP3      4225            0.0000000000
     30026      4362  TIP3      OH2            28.0525868842      -11.2882309028      -30.0513382301  TIP3      4226            0.0000000000
     30027      4362  TIP3      H1             27.8484129873      -10.7478778393      -30.8476150401  TIP3      4226            0.0000000000
     30028      4362  TIP3      H2             27.4476537960      -10.8867138580      -29.3983368044  TIP3      4226            0.0000000000
     30029      4363  TIP3      OH2            30.4156970828       -3.9156262065      -30.1014751134  TIP3      4227            0.0000000000
     30030      4363  TIP3      H1             29.7613899664       -3.2267962140      -29.8471658367  TIP3      4227            0.0000000000
     30031      4363  TIP3      H2             31.1524120826       -3.3781717193      -30.4792235533  TIP3      4227            0.0000000000
     30032      4364  TIP3      OH2            27.8129114265       -9.6012843519      -32.1785433063  TIP3      4228            0.0000000000
     30033      4364  TIP3      H1             28.5988475147       -9.1587190249      -31.7895872243  TIP3      4228            0.0000000000
     30034      4364  TIP3      H2             28.1915305624       -9.9308954218      -33.0297227922  TIP3      4228            0.0000000000
     30035      4365  TIP3      OH2            28.9153588254       -1.5818785023      -29.6105082167  TIP3      4229            0.0000000000
     30036      4365  TIP3      H1             28.6242599774       -0.9038764526      -30.2353467526  TIP3      4229            0.0000000000
     30037      4365  TIP3      H2             28.1783248001       -1.5184194535      -28.9576780941  TIP3      4229            0.0000000000
     30038      4366  TIP3      OH2            24.7096942816       -2.1664589929      -38.4767138736  TIP3      4230            0.0000000000
     30039      4366  TIP3      H1             24.7307977510       -1.7883305076      -39.3796101583  TIP3      4230            0.0000000000
     30040      4366  TIP3      H2             24.8523586461       -1.3508616514      -37.9321243151  TIP3      4230            0.0000000000
     30041      4367  TIP3      OH2            31.6900814041      -13.7512515806      -32.3582459550  TIP3      4231            0.0000000000
     30042      4367  TIP3      H1             31.6884375272      -14.6496745865      -32.0079901527  TIP3      4231            0.0000000000
     30043      4367  TIP3      H2             30.7894494165      -13.4516636536      -32.1164991267  TIP3      4231            0.0000000000
     30044      4368  TIP3      OH2            29.1771245394       -4.7704755508      -35.4562085768  TIP3      4232            0.0000000000
     30045      4368  TIP3      H1             29.0663284330       -5.2349585786      -36.3019067105  TIP3      4232            0.0000000000
     30046      4368  TIP3      H2             29.8775276148       -5.3174170720      -35.0251507821  TIP3      4232            0.0000000000
     30047      4369  TIP3      OH2            30.8896083168       -1.0774861407      -32.6788771300  TIP3      4233            0.0000000000
     30048      4369  TIP3      H1             30.9269059036       -1.3043970629      -33.6257116452  TIP3      4233            0.0000000000
     30049      4369  TIP3      H2             31.2149841045       -1.8860555568      -32.2393880814  TIP3      4233            0.0000000000
     30050      4370  TIP3      OH2            29.9712856923       -6.0929573330      -31.5123912101  TIP3      4234            0.0000000000
     30051      4370  TIP3      H1             30.1595861402       -5.9766330509      -32.4624598555  TIP3      4234            0.0000000000
     30052      4370  TIP3      H2             30.1384994830       -5.1966679104      -31.1426735666  TIP3      4234            0.0000000000
     30053      4371  TIP3      OH2            30.7037161154       -1.8094133268      -27.3513974003  TIP3      4235            0.0000000000
     30054      4371  TIP3      H1             30.2714127014       -1.3765416301      -26.5826615836  TIP3      4235            0.0000000000
     30055      4371  TIP3      H2             30.0923036821       -1.6335845205      -28.1012990952  TIP3      4235            0.0000000000
     30056      4372  TIP3      OH2            27.7182851350       -4.9200756774      -28.2899660104  TIP3      4236            0.0000000000
     30057      4372  TIP3      H1             27.9808489884       -4.1702011547      -27.7310652864  TIP3      4236            0.0000000000
     30058      4372  TIP3      H2             26.8403840753       -5.1129479748      -27.9174820297  TIP3      4236            0.0000000000
     30059      4373  TIP3      OH2            29.4139949680       -0.0686296565      -25.6232288360  TIP3      4237            0.0000000000
     30060      4373  TIP3      H1             29.1622737318        0.2606592593      -26.5040255634  TIP3      4237            0.0000000000
     30061      4373  TIP3      H2             28.5133954636       -0.1997499394      -25.2371820224  TIP3      4237            0.0000000000
     30062      4374  TIP3      OH2            28.4282219101       -5.5666235172      -38.2568469494  TIP3      4238            0.0000000000
     30063      4374  TIP3      H1             27.9307354220       -4.7193476464      -38.2731231114  TIP3      4238            0.0000000000
     30064      4374  TIP3      H2             27.7682769977       -6.1989319254      -37.9451223303  TIP3      4238            0.0000000000
     30065      4375  TIP3      OH2            24.7000625980       -2.6607327357      -28.5485808847  TIP3      4239            0.0000000000
     30066      4375  TIP3      H1             24.3595158225       -2.5038370412      -29.4438001561  TIP3      4239            0.0000000000
     30067      4375  TIP3      H2             24.9583915622       -3.6089219904      -28.5720098577  TIP3      4239            0.0000000000
     30068      4376  TIP3      OH2            24.8544321248       -0.2896497854      -31.7616375088  TIP3      4240            0.0000000000
     30069      4376  TIP3      H1             25.7109783616       -0.1466701358      -32.1824200697  TIP3      4240            0.0000000000
     30070      4376  TIP3      H2             24.9410190688        0.2761899155      -30.9772137000  TIP3      4240            0.0000000000
     30071      4377  TIP3      OH2            27.4702384256        2.4613020673      -35.8379986425  TIP3      4241            0.0000000000
     30072      4377  TIP3      H1             27.6142336970        2.1704249812      -34.9033970360  TIP3      4241            0.0000000000
     30073      4377  TIP3      H2             26.6143387074        2.0644848566      -36.0781338297  TIP3      4241            0.0000000000
     30074      4378  TIP3      OH2            26.9582326258       -1.4331237694      -27.8089478396  TIP3      4242            0.0000000000
     30075      4378  TIP3      H1             27.0580606894       -1.8252033560      -26.9190931248  TIP3      4242            0.0000000000
     30076      4378  TIP3      H2             26.0744993128       -1.8023083859      -28.0307796286  TIP3      4242            0.0000000000
     30077      4379  TIP3      OH2            29.2043145493      -13.1314527180      -31.6316231641  TIP3      4243            0.0000000000
     30078      4379  TIP3      H1             28.3784796631      -13.0505867358      -32.1454898904  TIP3      4243            0.0000000000
     30079      4379  TIP3      H2             29.0537488143      -12.4516084873      -30.9419871143  TIP3      4243            0.0000000000
     30080      4380  TIP3      OH2            29.5157790484       -8.4584078854      -30.3941927033  TIP3      4244            0.0000000000
     30081      4380  TIP3      H1             28.6142300497       -8.3743965783      -30.0142811261  TIP3      4244            0.0000000000
     30082      4380  TIP3      H2             29.6179959320       -7.5994795467      -30.8732054921  TIP3      4244            0.0000000000
     30083      4381  TIP3      OH2            29.4595605632       -8.4361318144      -35.6279279667  TIP3      4245            0.0000000000
     30084      4381  TIP3      H1             28.4951255499       -8.2648267272      -35.7315285291  TIP3      4245            0.0000000000
     30085      4381  TIP3      H2             29.7358239195       -8.4737886793      -36.5755984545  TIP3      4245            0.0000000000
     30086      4382  TIP3      OH2            27.0206948522       -8.1348207088      -29.3530295704  TIP3      4246            0.0000000000
     30087      4382  TIP3      H1             27.3388216391       -7.6399238149      -28.5813115643  TIP3      4246            0.0000000000
     30088      4382  TIP3      H2             26.6730684068       -8.9494829972      -28.9281918363  TIP3      4246            0.0000000000
     30089      4383  TIP3      OH2            30.9200873568      -10.0868128979      -41.3171467187  TIP3      4247            0.0000000000
     30090      4383  TIP3      H1             30.4416010122      -10.7762297901      -40.8137446205  TIP3      4247            0.0000000000
     30091      4383  TIP3      H2             30.2639180421       -9.3547511089      -41.2620334864  TIP3      4247            0.0000000000
     30092      4384  TIP3      OH2            23.9290334025      -10.8032595809      -34.6466589277  TIP3      4248            0.0000000000
     30093      4384  TIP3      H1             24.5904559457      -10.5202311497      -34.0040539528  TIP3      4248            0.0000000000
     30094      4384  TIP3      H2             24.1935960099      -10.3407024595      -35.4520124329  TIP3      4248            0.0000000000
     30095      4385  TIP3      OH2            25.1686294150      -10.3707574930      -39.3488766622  TIP3      4249            0.0000000000
     30096      4385  TIP3      H1             25.7854640276       -9.9588140270      -39.9868290290  TIP3      4249            0.0000000000
     30097      4385  TIP3      H2             24.5788820935       -9.6188066254      -39.1322236458  TIP3      4249            0.0000000000
     30098      4386  TIP3      OH2            31.8979741035      -10.6196423086      -34.5485146716  TIP3      4250            0.0000000000
     30099      4386  TIP3      H1             30.9477995237      -10.7939270876      -34.3843438236  TIP3      4250            0.0000000000
     30100      4386  TIP3      H2             32.0662791997       -9.9272424919      -33.8639678998  TIP3      4250            0.0000000000
     30101      4387  TIP3      OH2            26.8787851770       -8.5068850990      -36.0525987894  TIP3      4251            0.0000000000
     30102      4387  TIP3      H1             26.0436877651       -8.1183030612      -36.4044395395  TIP3      4251            0.0000000000
     30103      4387  TIP3      H2             26.9087911001       -9.3434874358      -36.5401373450  TIP3      4251            0.0000000000
     30104      4388  TIP3      OH2            30.1431771257       -8.3457259520      -38.1249848149  TIP3      4252            0.0000000000
     30105      4388  TIP3      H1             31.0934594420       -8.1478848594      -38.0668328779  TIP3      4252            0.0000000000
     30106      4388  TIP3      H2             29.9296210716       -8.1429294885      -39.0534597968  TIP3      4252            0.0000000000
     30107      4389  TIP3      OH2            29.3286222410       -7.9730153856      -40.9493186647  TIP3      4253            0.0000000000
     30108      4389  TIP3      H1             28.4137054557       -8.1570360479      -41.2392852026  TIP3      4253            0.0000000000
     30109      4389  TIP3      H2             29.5100277978       -7.1191909358      -41.3660104672  TIP3      4253            0.0000000000
     30110      4390  TIP3      OH2            26.7427252367       -3.1695828542      -25.7416520533  TIP3      4254            0.0000000000
     30111      4390  TIP3      H1             27.5563256353       -3.3094289607      -25.2022816794  TIP3      4254            0.0000000000
     30112      4390  TIP3      H2             26.0616884272       -3.0634125173      -25.0512409461  TIP3      4254            0.0000000000
     30113      4391  TIP3      OH2            32.4427400060       -8.3341702737      -33.2137293726  TIP3      4255            0.0000000000
     30114      4391  TIP3      H1             33.3448993979       -8.2433808601      -33.5755742512  TIP3      4255            0.0000000000
     30115      4391  TIP3      H2             32.6287874932       -8.0431081674      -32.2980481064  TIP3      4255            0.0000000000
     30116      4392  TIP3      OH2            28.0282090986      -12.0726588658      -36.4492694158  TIP3      4256            0.0000000000
     30117      4392  TIP3      H1             27.3600206981      -12.6047702527      -35.9673704794  TIP3      4256            0.0000000000
     30118      4392  TIP3      H2             28.5429159582      -12.7611594910      -36.8984527005  TIP3      4256            0.0000000000
     30119      4393  TIP3      OH2            31.8248210003       -9.7479232688      -30.1020922443  TIP3      4257            0.0000000000
     30120      4393  TIP3      H1             31.1097075995       -9.0928128241      -30.2583298505  TIP3      4257            0.0000000000
     30121      4393  TIP3      H2             32.6071729375       -9.1973858475      -30.3314686811  TIP3      4257            0.0000000000
     30122      4394  TIP3      OH2            32.2582628981       -2.7814827478      -38.7972800692  TIP3      4258            0.0000000000
     30123      4394  TIP3      H1             31.5316612131       -3.2730557871      -39.2239654537  TIP3      4258            0.0000000000
     30124      4394  TIP3      H2             32.0080580437       -2.9078971682      -37.8539429634  TIP3      4258            0.0000000000
     30125      4395  TIP3      OH2            27.9926570525       -3.6319127438      -32.7365535004  TIP3      4259            0.0000000000
     30126      4395  TIP3      H1             28.4202222149       -3.9538311202      -33.5470328713  TIP3      4259            0.0000000000
     30127      4395  TIP3      H2             27.7633822124       -4.4584809334      -32.2580129869  TIP3      4259            0.0000000000
     30128      4396  TIP3      OH2            24.7755677935       -5.3885980974      -27.5232415493  TIP3      4260            0.0000000000
     30129      4396  TIP3      H1             24.5865637918       -5.9771247268      -26.7728778815  TIP3      4260            0.0000000000
     30130      4396  TIP3      H2             24.2208151065       -5.7355253068      -28.2539279801  TIP3      4260            0.0000000000
     30131      4397  TIP3      OH2            31.6707186096       -6.2622092351      -26.0553763532  TIP3      4261            0.0000000000
     30132      4397  TIP3      H1             31.0123212820       -6.3364414604      -26.7808562960  TIP3      4261            0.0000000000
     30133      4397  TIP3      H2             32.3330790457       -6.9191430555      -26.3170892246  TIP3      4261            0.0000000000
     30134      4398  TIP3      OH2            29.7031272210       -0.3985852494      -35.4908336153  TIP3      4262            0.0000000000
     30135      4398  TIP3      H1             30.3373853501        0.2865094711      -35.7428572070  TIP3      4262            0.0000000000
     30136      4398  TIP3      H2             28.8648663328        0.0152566514      -35.7375200984  TIP3      4262            0.0000000000
     30137      4399  TIP3      OH2            25.8177285690       -5.7293155563      -41.2643343769  TIP3      4263            0.0000000000
     30138      4399  TIP3      H1             26.1790667973       -5.1763467612      -40.5422212621  TIP3      4263            0.0000000000
     30139      4399  TIP3      H2             24.8632220759       -5.7179613422      -41.0642219303  TIP3      4263            0.0000000000
     30140      4400  TIP3      OH2            31.5476887194       -2.8404258562      -36.1970782728  TIP3      4264            0.0000000000
     30141      4400  TIP3      H1             31.0084780642       -2.0250411498      -36.1603343863  TIP3      4264            0.0000000000
     30142      4400  TIP3      H2             30.9772161568       -3.4604782633      -35.7107881956  TIP3      4264            0.0000000000
     30143      4401  TIP3      OH2            32.0762316012        1.5595320645      -28.7351658088  TIP3      4265            0.0000000000
     30144      4401  TIP3      H1             32.8432572807        2.1394102715      -28.7239129347  TIP3      4265            0.0000000000
     30145      4401  TIP3      H2             32.3470375386        0.8730835421      -28.1151873520  TIP3      4265            0.0000000000
     30146      4402  TIP3      OH2            30.1449520400        2.9990497070      -36.5786686074  TIP3      4266            0.0000000000
     30147      4402  TIP3      H1             29.2203816201        2.8641950981      -36.2696236200  TIP3      4266            0.0000000000
     30148      4402  TIP3      H2             30.4249593960        3.7349438561      -35.9904175089  TIP3      4266            0.0000000000
     30149      4403  TIP3      OH2            26.3616133529      -10.4506473049      -28.0475117532  TIP3      4267            0.0000000000
     30150      4403  TIP3      H1             25.5063111251      -10.0041975314      -27.9479495715  TIP3      4267            0.0000000000
     30151      4403  TIP3      H2             26.1908698566      -11.3046386988      -27.6286571717  TIP3      4267            0.0000000000
     30152      4404  TIP3      OH2            26.1790240339        1.2764994485      -29.8021629694  TIP3      4268            0.0000000000
     30153      4404  TIP3      H1             26.7069764050        0.4974837843      -29.5790428936  TIP3      4268            0.0000000000
     30154      4404  TIP3      H2             26.5457809371        1.9443239416      -29.1975440956  TIP3      4268            0.0000000000
     30155      4405  TIP3      OH2            30.2121088908       -0.4551109830      -40.3069462875  TIP3      4269            0.0000000000
     30156      4405  TIP3      H1             30.7955866563       -1.0121512031      -39.7730237893  TIP3      4269            0.0000000000
     30157      4405  TIP3      H2             30.2767758684        0.4039641193      -39.8225613265  TIP3      4269            0.0000000000
     30158      4406  TIP3      OH2            26.7571065919       -3.5796434887      -39.4743430179  TIP3      4270            0.0000000000
     30159      4406  TIP3      H1             25.9987195019       -3.1226402177      -39.0411673804  TIP3      4270            0.0000000000
     30160      4406  TIP3      H2             27.2709366798       -2.8149749693      -39.7935451620  TIP3      4270            0.0000000000
     30161      4407  TIP3      OH2            32.8991975344       -8.9994809794      -37.5202243767  TIP3      4271            0.0000000000
     30162      4407  TIP3      H1             33.6554689156       -9.6061684759      -37.5271760271  TIP3      4271            0.0000000000
     30163      4407  TIP3      H2             32.3261212492       -9.4430734111      -36.8728734779  TIP3      4271            0.0000000000
     30164      4408  TIP3      OH2            30.5530758461        1.9174923403      -38.9712769519  TIP3      4272            0.0000000000
     30165      4408  TIP3      H1             30.6703000186        2.6944699088      -39.5497536117  TIP3      4272            0.0000000000
     30166      4408  TIP3      H2             30.3880263377        2.3605236706      -38.1045939626  TIP3      4272            0.0000000000
     30167      4409  TIP3      OH2            29.1272360760      -11.3681415049      -39.6181196492  TIP3      4273            0.0000000000
     30168      4409  TIP3      H1             28.8292859988      -10.6910584307      -38.9907669729  TIP3      4273            0.0000000000
     30169      4409  TIP3      H2             29.7021933977      -11.9016015634      -39.0065626790  TIP3      4273            0.0000000000
     30170      4410  TIP3      OH2            27.5256818828       -1.1264923343      -40.6462705519  TIP3      4274            0.0000000000
     30171      4410  TIP3      H1             28.3322447098       -0.7043955290      -40.2889704529  TIP3      4274            0.0000000000
     30172      4410  TIP3      H2             27.9159908376       -1.6366359614      -41.3861979578  TIP3      4274            0.0000000000
     30173      4411  TIP3      OH2            26.3362702183       -8.3624883351      -40.8513245233  TIP3      4275            0.0000000000
     30174      4411  TIP3      H1             26.3252023041       -7.4007170941      -41.0560363220  TIP3      4275            0.0000000000
     30175      4411  TIP3      H2             25.5579348255       -8.6406196218      -41.3424264102  TIP3      4275            0.0000000000
     30176      4412  TIP3      OH2            26.5599161867      -13.2679637077      -32.4278540157  TIP3      4276            0.0000000000
     30177      4412  TIP3      H1             26.3979284743      -13.4536630102      -33.3825534936  TIP3      4276            0.0000000000
     30178      4412  TIP3      H2             26.5723264465      -14.1953283989      -32.0896513110  TIP3      4276            0.0000000000
     30179      4413  TIP3      OH2            25.1186173912        0.1072735477      -37.1865426812  TIP3      4277            0.0000000000
     30180      4413  TIP3      H1             24.5421048949        0.6312639895      -36.6157324423  TIP3      4277            0.0000000000
     30181      4413  TIP3      H2             25.3113749196        0.7766063479      -37.8831835045  TIP3      4277            0.0000000000
     30182      4414  TIP3      OH2            24.7652072463        2.8698361605      -25.4283211809  TIP3      4278            0.0000000000
     30183      4414  TIP3      H1             25.4520732370        2.7578233105      -24.7348072763  TIP3      4278            0.0000000000
     30184      4414  TIP3      H2             24.4168546009        1.9481895922      -25.5090551646  TIP3      4278            0.0000000000
     30185      4415  TIP3      OH2            29.2282392002        1.4058404341      -23.1763129803  TIP3      4279            0.0000000000
     30186      4415  TIP3      H1             28.7722164852        0.5636854207      -22.9519063036  TIP3      4279            0.0000000000
     30187      4415  TIP3      H2             29.7336943842        1.0846469638      -23.9382707876  TIP3      4279            0.0000000000
     30188      4416  TIP3      OH2            24.6089755984       -3.2994176005      -24.0512233781  TIP3      4280            0.0000000000
     30189      4416  TIP3      H1             24.1382431879       -3.1282648452      -24.9030311564  TIP3      4280            0.0000000000
     30190      4416  TIP3      H2             23.9960419761       -2.8257488783      -23.4744402803  TIP3      4280            0.0000000000
     30191      4417  TIP3      OH2            28.7751906793       -3.0625767081      -42.1916987433  TIP3      4281            0.0000000000
     30192      4417  TIP3      H1             29.0950253049       -3.6116537613      -41.4478951914  TIP3      4281            0.0000000000
     30193      4417  TIP3      H2             29.5173826039       -3.0985102121      -42.8131904516  TIP3      4281            0.0000000000
     30194      4418  TIP3      OH2            31.6967549654       -3.6984555402      -25.1967205046  TIP3      4282            0.0000000000
     30195      4418  TIP3      H1             31.5463176233       -3.0141815821      -25.8855078409  TIP3      4282            0.0000000000
     30196      4418  TIP3      H2             31.8361788976       -4.5229509892      -25.7134850143  TIP3      4282            0.0000000000
     30197      4419  TIP3      OH2            26.0515255221       -6.0082795650      -24.0266554294  TIP3      4283            0.0000000000
     30198      4419  TIP3      H1             26.9532147351       -6.3614376001      -24.0615361498  TIP3      4283            0.0000000000
     30199      4419  TIP3      H2             26.1405827966       -5.1785397303      -24.5147076670  TIP3      4283            0.0000000000
     30200      4420  TIP3      OH2            30.1128533419       -4.3108003853      -40.0209331056  TIP3      4284            0.0000000000
     30201      4420  TIP3      H1             29.6185073680       -4.7545643008      -39.2977895867  TIP3      4284            0.0000000000
     30202      4420  TIP3      H2             30.6591273069       -5.0593117041      -40.3521841977  TIP3      4284            0.0000000000
     30203      4421  TIP3      OH2            29.5935668293       -6.7958562443      -27.8823539514  TIP3      4285            0.0000000000
     30204      4421  TIP3      H1             28.9847520705       -6.0578012026      -28.0977350629  TIP3      4285            0.0000000000
     30205      4421  TIP3      H2             30.1761018880       -6.7832824653      -28.6555606491  TIP3      4285            0.0000000000
     30206      4422  TIP3      OH2            31.6604578010       -6.1931959542      -41.2955455456  TIP3      4286            0.0000000000
     30207      4422  TIP3      H1             31.7947498742       -7.0539167237      -41.7221736197  TIP3      4286            0.0000000000
     30208      4422  TIP3      H2             32.5719995353       -5.9215199223      -41.0886462298  TIP3      4286            0.0000000000
     30209      4423  TIP3      OH2            30.2630075911       -9.3362673148      -26.7073871506  TIP3      4287            0.0000000000
     30210      4423  TIP3      H1             30.3053002659      -10.0755521580      -27.3496928937  TIP3      4287            0.0000000000
     30211      4423  TIP3      H2             29.9868008709       -8.5876743426      -27.2744319616  TIP3      4287            0.0000000000
     30212      4424  TIP3      OH2            30.3721574016      -11.4823210671      -28.7140127790  TIP3      4288            0.0000000000
     30213      4424  TIP3      H1             30.8902720233      -10.8532864531      -29.2714804581  TIP3      4288            0.0000000000
     30214      4424  TIP3      H2             29.4913214769      -11.3838891802      -29.1324085104  TIP3      4288            0.0000000000
     30215      4425  TIP3      OH2            32.4770222031       -5.4459677605      -28.8847059382  TIP3      4289            0.0000000000
     30216      4425  TIP3      H1             32.9647876318       -5.3739607369      -29.7255587326  TIP3      4289            0.0000000000
     30217      4425  TIP3      H2             31.6804958912       -4.9442391387      -29.1399355189  TIP3      4289            0.0000000000
     30218      4426  TIP3      OH2            28.6857389481       -8.7440177102      -24.6400642691  TIP3      4290            0.0000000000
     30219      4426  TIP3      H1             27.9489712040       -9.2837155480      -24.9771849659  TIP3      4290            0.0000000000
     30220      4426  TIP3      H2             29.3528873271       -8.9380887147      -25.3390529341  TIP3      4290            0.0000000000
     30221      4427  TIP3      OH2            31.1316622712      -14.0218995697      -28.7508047958  TIP3      4291            0.0000000000
     30222      4427  TIP3      H1             30.9632317825      -13.0504576223      -28.7642084252  TIP3      4291            0.0000000000
     30223      4427  TIP3      H2             30.2222952758      -14.3455516933      -28.9290175650  TIP3      4291            0.0000000000
     30224      4428  TIP3      OH2            32.5506579508       -9.6446675195      -24.9397688083  TIP3      4292            0.0000000000
     30225      4428  TIP3      H1             32.3353148363      -10.5537427967      -24.6338176540  TIP3      4292            0.0000000000
     30226      4428  TIP3      H2             31.8000986013       -9.4944199984      -25.5436160988  TIP3      4292            0.0000000000
     30227      4429  TIP3      OH2            26.6022002730      -10.7233758742      -24.2635510645  TIP3      4293            0.0000000000
     30228      4429  TIP3      H1             26.4825254149      -11.4771917828      -24.8827278206  TIP3      4293            0.0000000000
     30229      4429  TIP3      H2             26.8181372393      -11.2197916586      -23.4571074573  TIP3      4293            0.0000000000
     30230      4430  TIP3      OH2            31.4004641871      -13.9580065991      -25.8477937091  TIP3      4294            0.0000000000
     30231      4430  TIP3      H1             31.7295263532      -14.8650136566      -25.7866848458  TIP3      4294            0.0000000000
     30232      4430  TIP3      H2             31.3600252023      -13.8474340997      -26.8183074060  TIP3      4294            0.0000000000
     30233      4431  TIP3      OH2            31.8578052653      -12.0938707717      -23.9113211933  TIP3      4295            0.0000000000
     30234      4431  TIP3      H1             31.6107925376      -12.7617805171      -24.5884808525  TIP3      4295            0.0000000000
     30235      4431  TIP3      H2             31.0277820670      -11.9687202139      -23.4322636191  TIP3      4295            0.0000000000
     30236      4432  TIP3      OH2            31.1388800523        4.1279824769      -40.7701078059  TIP3      4296            0.0000000000
     30237      4432  TIP3      H1             31.2582291902        4.7966891165      -40.0684257044  TIP3      4296            0.0000000000
     30238      4432  TIP3      H2             31.4176622469        4.5885762734      -41.5760743921  TIP3      4296            0.0000000000
     30239      4433  TIP3      OH2            24.7972589550       -1.4483656397      -41.2002765234  TIP3      4297            0.0000000000
     30240      4433  TIP3      H1             25.7422002344       -1.2516965543      -41.0031826106  TIP3      4297            0.0000000000
     30241      4433  TIP3      H2             24.7923624920       -1.3856199844      -42.1801015323  TIP3      4297            0.0000000000
     30242      4434  TIP3      OH2            23.6591025260        3.7544778797      -35.9929638805  TIP3      4298            0.0000000000
     30243      4434  TIP3      H1             22.9268212057        3.2625561341      -36.4357938272  TIP3      4298            0.0000000000
     30244      4434  TIP3      H2             23.9506194540        3.1081691854      -35.3137924781  TIP3      4298            0.0000000000
     30245      4435  TIP3      OH2            24.6405363224        2.1466961464      -34.0778118328  TIP3      4299            0.0000000000
     30246      4435  TIP3      H1             23.9458017502        1.8517870165      -33.4617508101  TIP3      4299            0.0000000000
     30247      4435  TIP3      H2             25.2713441285        2.5248485398      -33.4286611180  TIP3      4299            0.0000000000
     30248      4436  TIP3      OH2            24.6571725247       -4.4410461263      -31.5238517373  TIP3      4300            0.0000000000
     30249      4436  TIP3      H1             24.5818197739       -4.7562117231      -32.4622152602  TIP3      4300            0.0000000000
     30250      4436  TIP3      H2             25.6134473070       -4.5963454745      -31.3444765004  TIP3      4300            0.0000000000
     30251      4437  TIP3      OH2            24.4321481826       -9.6164264783      -25.5687748943  TIP3      4301            0.0000000000
     30252      4437  TIP3      H1             25.2086023218      -10.0447196577      -25.1492099377  TIP3      4301            0.0000000000
     30253      4437  TIP3      H2             23.7265182271      -10.2874717419      -25.4026188785  TIP3      4301            0.0000000000
     30254      4438  TIP3      OH2            25.3036712091      -10.8834354576      -31.8461039606  TIP3      4302            0.0000000000
     30255      4438  TIP3      H1             25.4897655533      -11.8393608780      -31.9584278944  TIP3      4302            0.0000000000
     30256      4438  TIP3      H2             26.2028478997      -10.5066069498      -31.8998865480  TIP3      4302            0.0000000000
     30257      4439  TIP3      OH2            24.0095633821       -7.9486741139      -31.2952056014  TIP3      4303            0.0000000000
     30258      4439  TIP3      H1             24.3387058277       -8.7166306379      -31.7844709633  TIP3      4303            0.0000000000
     30259      4439  TIP3      H2             24.5236668058       -7.2379819851      -31.6979155754  TIP3      4303            0.0000000000
     30260      4440  TIP3      OH2            23.6385007388      -11.9645899355      -37.5072098063  TIP3      4304            0.0000000000
     30261      4440  TIP3      H1             22.8065750238      -11.6430247555      -37.8657941767  TIP3      4304            0.0000000000
     30262      4440  TIP3      H2             24.2410623950      -11.6855242813      -38.2170819303  TIP3      4304            0.0000000000
     30263      4441  TIP3      OH2            23.9102638301      -13.2632131643      -29.1748948593  TIP3      4305            0.0000000000
     30264      4441  TIP3      H1             23.2560700202      -13.6615377781      -28.5639941416  TIP3      4305            0.0000000000
     30265      4441  TIP3      H2             23.4043762158      -12.5468680326      -29.5789672728  TIP3      4305            0.0000000000
     30266      4442  TIP3      OH2            26.8741889214       -0.1547287534      -24.7467843324  TIP3      4306            0.0000000000
     30267      4442  TIP3      H1             26.2066503071        0.4241407718      -25.1257938145  TIP3      4306            0.0000000000
     30268      4442  TIP3      H2             26.3957061997       -0.5762495792      -24.0153450259  TIP3      4306            0.0000000000
     30269      4443  TIP3      OH2            29.3081544271        1.4485963567      -28.3731943814  TIP3      4307            0.0000000000
     30270      4443  TIP3      H1             29.1533302586        2.2825855296      -28.8613358526  TIP3      4307            0.0000000000
     30271      4443  TIP3      H2             30.2798248526        1.3873824859      -28.4655241328  TIP3      4307            0.0000000000
     30272      4444  TIP3      OH2            26.7054411848        4.2213397940      -28.8562220461  TIP3      4308            0.0000000000
     30273      4444  TIP3      H1             25.9192981781        4.7676510059      -29.0675764723  TIP3      4308            0.0000000000
     30274      4444  TIP3      H2             26.6908469703        4.2715293096      -27.8831370770  TIP3      4308            0.0000000000
     30275      4445  TIP3      OH2            28.9906482750        3.6680011730      -29.9644332307  TIP3      4309            0.0000000000
     30276      4445  TIP3      H1             28.0758921360        3.8808585761      -29.6441050179  TIP3      4309            0.0000000000
     30277      4445  TIP3      H2             29.1452457845        4.3884184961      -30.6178603182  TIP3      4309            0.0000000000
     30278      4446  TIP3      OH2            26.1105695453        2.8388894799      -31.9380814143  TIP3      4310            0.0000000000
     30279      4446  TIP3      H1             25.9190566899        2.4225013900      -31.0689545750  TIP3      4310            0.0000000000
     30280      4446  TIP3      H2             27.0277499319        2.5290747308      -32.1278033811  TIP3      4310            0.0000000000
     30281      4447  TIP3      OH2            28.2471686406        2.0115912488      -33.3330234601  TIP3      4311            0.0000000000
     30282      4447  TIP3      H1             27.9886797106        1.1257702250      -32.9942364291  TIP3      4311            0.0000000000
     30283      4447  TIP3      H2             29.1542097605        2.0410715349      -32.9387061690  TIP3      4311            0.0000000000
     30284      4448  TIP3      OH2            30.5421338066        1.5749075385      -32.2630434774  TIP3      4312            0.0000000000
     30285      4448  TIP3      H1             30.9387550456        0.6876951244      -32.4005671866  TIP3      4312            0.0000000000
     30286      4448  TIP3      H2             30.6984488727        1.7221991169      -31.3284584551  TIP3      4312            0.0000000000
     30287      4449  TIP3      OH2            26.3150521018      -13.9926164881      -35.0137540730  TIP3      4313            0.0000000000
     30288      4449  TIP3      H1             25.4301621827      -14.1066688482      -35.4155870136  TIP3      4313            0.0000000000
     30289      4449  TIP3      H2             26.7206307111      -14.8673737803      -35.2160422537  TIP3      4313            0.0000000000
     30290      4450  TIP3      OH2            25.2928352275      -14.0419958076      -39.5107036303  TIP3      4314            0.0000000000
     30291      4450  TIP3      H1             25.7353752969      -13.2620734344      -39.9108284539  TIP3      4314            0.0000000000
     30292      4450  TIP3      H2             24.6240681624      -13.6540104726      -38.9280574544  TIP3      4314            0.0000000000
     30293      4451  TIP3      OH2            31.0581874383      -13.9080233253      -34.9494183496  TIP3      4315            0.0000000000
     30294      4451  TIP3      H1             31.3954836869      -13.0989662917      -35.3515967319  TIP3      4315            0.0000000000
     30295      4451  TIP3      H2             31.2760158167      -13.7489549693      -34.0023828243  TIP3      4315            0.0000000000
     30296      4452  TIP3      OH2            25.0170659301        2.1419618478      -38.8073354421  TIP3      4316            0.0000000000
     30297      4452  TIP3      H1             24.1596106728        2.1523834395      -39.2757521647  TIP3      4316            0.0000000000
     30298      4452  TIP3      H2             25.2047539638        3.1005998422      -38.8802691014  TIP3      4316            0.0000000000
     30299      4453  TIP3      OH2            26.8570527452      -12.2790467165      -41.2436912300  TIP3      4317            0.0000000000
     30300      4453  TIP3      H1             27.4912118309      -12.8486143991      -41.7075237494  TIP3      4317            0.0000000000
     30301      4453  TIP3      H2             27.4465671912      -11.7925777270      -40.6402636387  TIP3      4317            0.0000000000
     30302      4454  TIP3      OH2            31.2041808591      -12.2897850508      -38.1569448354  TIP3      4318            0.0000000000
     30303      4454  TIP3      H1             31.9610572571      -12.6767908630      -37.6666214715  TIP3      4318            0.0000000000
     30304      4454  TIP3      H2             31.6843328648      -11.6249908266      -38.6723618462  TIP3      4318            0.0000000000
     30305      4455  TIP3      OH2            26.1838390906      -13.2076961269      -25.4542630974  TIP3      4319            0.0000000000
     30306      4455  TIP3      H1             25.8301559539      -14.1217803442      -25.4762212626  TIP3      4319            0.0000000000
     30307      4455  TIP3      H2             27.0467698703      -13.3242531954      -25.0116289873  TIP3      4319            0.0000000000
     30308      4456  TIP3      OH2            28.4767112133      -13.6794047722      -23.8000205964  TIP3      4320            0.0000000000
     30309      4456  TIP3      H1             29.0528791909      -14.0918671022      -24.4583513943  TIP3      4320            0.0000000000
     30310      4456  TIP3      H2             28.1616734293      -14.4467174652      -23.2770986562  TIP3      4320            0.0000000000
     30311      4457  TIP3      OH2            26.9132357328        3.7869169822      -41.5735199984  TIP3      4321            0.0000000000
     30312      4457  TIP3      H1             26.6837151571        4.1052140390      -40.6802143640  TIP3      4321            0.0000000000
     30313      4457  TIP3      H2             27.3990565810        2.9855035912      -41.3286553608  TIP3      4321            0.0000000000
     30314      4458  TIP3      OH2           -20.7786109770       14.5191151202      -35.6131722690  TIP3      4322            0.0000000000
     30315      4458  TIP3      H1            -20.9823934334       15.4425923434      -35.8998463733  TIP3      4322            0.0000000000
     30316      4458  TIP3      H2            -21.6236780671       14.0904841627      -35.8204348939  TIP3      4322            0.0000000000
     30317      4459  TIP3      OH2           -21.8966961591       13.4163900510      -32.4470071056  TIP3      4323            0.0000000000
     30318      4459  TIP3      H1            -22.0048556349       13.1055766308      -31.5313446822  TIP3      4323            0.0000000000
     30319      4459  TIP3      H2            -22.2329934767       12.6629268545      -32.9644980303  TIP3      4323            0.0000000000
     30320      4460  TIP3      OH2           -29.4237945013       13.3241359674      -30.5717990327  TIP3      4324            0.0000000000
     30321      4460  TIP3      H1            -29.5104049698       12.4473162548      -30.1492209776  TIP3      4324            0.0000000000
     30322      4460  TIP3      H2            -28.8727017940       13.7876144467      -29.9151480196  TIP3      4324            0.0000000000
     30323      4461  TIP3      OH2           -18.8310643540       16.3507860932      -34.0806274906  TIP3      4325            0.0000000000
     30324      4461  TIP3      H1            -19.2379272511       15.6160396951      -33.5817328868  TIP3      4325            0.0000000000
     30325      4461  TIP3      H2            -18.3586938363       16.8476940413      -33.3963576006  TIP3      4325            0.0000000000
     30326      4462  TIP3      OH2           -29.0923018212       17.8566294292      -32.4976281090  TIP3      4326            0.0000000000
     30327      4462  TIP3      H1            -29.2992677867       16.9233682721      -32.7354395890  TIP3      4326            0.0000000000
     30328      4462  TIP3      H2            -28.1559017149       17.7279692243      -32.2991410758  TIP3      4326            0.0000000000
     30329      4463  TIP3      OH2           -32.7590209196       11.3153918812      -36.4469639119  TIP3      4327            0.0000000000
     30330      4463  TIP3      H1            -32.3780000121       12.1974239104      -36.3729075320  TIP3      4327            0.0000000000
     30331      4463  TIP3      H2            -33.6936107387       11.5524923042      -36.4999916735  TIP3      4327            0.0000000000
     30332      4464  TIP3      OH2           -31.7469213144       13.4613527393      -33.8442972000  TIP3      4328            0.0000000000
     30333      4464  TIP3      H1            -31.3283564783       12.5776741172      -33.7427638018  TIP3      4328            0.0000000000
     30334      4464  TIP3      H2            -31.1357718196       13.8943041953      -34.4440739147  TIP3      4328            0.0000000000
     30335      4465  TIP3      OH2           -20.9138010544       21.9136516635      -33.6574158998  TIP3      4329            0.0000000000
     30336      4465  TIP3      H1            -20.2573794030       21.2139093820      -33.9025956301  TIP3      4329            0.0000000000
     30337      4465  TIP3      H2            -21.5329467886       21.4045730463      -33.1253587923  TIP3      4329            0.0000000000
     30338      4466  TIP3      OH2           -24.0400894016       15.9081806339      -31.1547311473  TIP3      4330            0.0000000000
     30339      4466  TIP3      H1            -23.6651601394       15.6850854084      -32.0180658169  TIP3      4330            0.0000000000
     30340      4466  TIP3      H2            -23.2362578743       16.2487146308      -30.7000766596  TIP3      4330            0.0000000000
     30341      4467  TIP3      OH2           -14.6046236104        7.6901956582      -30.7271350045  TIP3      4331            0.0000000000
     30342      4467  TIP3      H1            -14.6606281428        8.0452376865      -29.8135118044  TIP3      4331            0.0000000000
     30343      4467  TIP3      H2            -13.6550482301        7.8825142824      -30.9159245881  TIP3      4331            0.0000000000
     30344      4468  TIP3      OH2           -20.0087217135       10.8803803058      -30.9051766256  TIP3      4332            0.0000000000
     30345      4468  TIP3      H1            -19.2578208095       10.4093973589      -30.4643726203  TIP3      4332            0.0000000000
     30346      4468  TIP3      H2            -20.6067964291       10.1163171481      -30.9505854436  TIP3      4332            0.0000000000
     30347      4469  TIP3      OH2           -27.9645742854        8.4699908006      -34.1909224288  TIP3      4333            0.0000000000
     30348      4469  TIP3      H1            -27.4875365543        9.1396255832      -34.7285029493  TIP3      4333            0.0000000000
     30349      4469  TIP3      H2            -28.2489165725        7.8678741954      -34.9125742696  TIP3      4333            0.0000000000
     30350      4470  TIP3      OH2           -20.2988059638        8.5422938517      -35.4313446703  TIP3      4334            0.0000000000
     30351      4470  TIP3      H1            -19.7851034935        8.2289157591      -34.6679562980  TIP3      4334            0.0000000000
     30352      4470  TIP3      H2            -19.8563883064        9.3592776812      -35.7046277769  TIP3      4334            0.0000000000
     30353      4471  TIP3      OH2           -30.7556654669       11.0006301612      -33.5045033797  TIP3      4335            0.0000000000
     30354      4471  TIP3      H1            -30.1615734410       10.4793548882      -32.9346654590  TIP3      4335            0.0000000000
     30355      4471  TIP3      H2            -30.5631475051       10.5903478388      -34.3650329179  TIP3      4335            0.0000000000
     30356      4472  TIP3      OH2           -26.2429402202       12.5425262940      -34.1307854179  TIP3      4336            0.0000000000
     30357      4472  TIP3      H1            -25.4626870071       12.0487145095      -33.7985666029  TIP3      4336            0.0000000000
     30358      4472  TIP3      H2            -26.5795177414       11.8295937025      -34.7139992399  TIP3      4336            0.0000000000
     30359      4473  TIP3      OH2           -14.2688195872        8.8017106887      -28.1416792041  TIP3      4337            0.0000000000
     30360      4473  TIP3      H1            -14.5981179681        9.6291163433      -28.5455518769  TIP3      4337            0.0000000000
     30361      4473  TIP3      H2            -14.4475461721        9.0167299805      -27.2035938970  TIP3      4337            0.0000000000
     30362      4474  TIP3      OH2           -28.4434790251        7.6209056350      -30.0931492945  TIP3      4338            0.0000000000
     30363      4474  TIP3      H1            -28.7943604893        8.1991109114      -30.8019824141  TIP3      4338            0.0000000000
     30364      4474  TIP3      H2            -29.1186297163        7.7426200579      -29.3879575798  TIP3      4338            0.0000000000
     30365      4475  TIP3      OH2           -21.7228286476       16.7915783346      -36.6758265188  TIP3      4339            0.0000000000
     30366      4475  TIP3      H1            -21.9199066707       16.9067433003      -37.6255566078  TIP3      4339            0.0000000000
     30367      4475  TIP3      H2            -22.1207319934       17.6171376298      -36.3251556192  TIP3      4339            0.0000000000
     30368      4476  TIP3      OH2           -26.3851310536       15.0406305151      -29.9024541647  TIP3      4340            0.0000000000
     30369      4476  TIP3      H1            -27.0302152226       15.7369262935      -29.6471487710  TIP3      4340            0.0000000000
     30370      4476  TIP3      H2            -25.6749614082       15.5728502633      -30.3162831215  TIP3      4340            0.0000000000
     30371      4477  TIP3      OH2           -18.0815591666        8.3038943758      -32.8663227035  TIP3      4341            0.0000000000
     30372      4477  TIP3      H1            -18.8505888855        7.7389440043      -32.6402887188  TIP3      4341            0.0000000000
     30373      4477  TIP3      H2            -17.9587293771        8.7163236425      -31.9828107198  TIP3      4341            0.0000000000
     30374      4478  TIP3      OH2           -28.9749514504        9.4803357581      -31.9811359690  TIP3      4342            0.0000000000
     30375      4478  TIP3      H1            -28.3093193689       10.1167438660      -31.6255598950  TIP3      4342            0.0000000000
     30376      4478  TIP3      H2            -28.4609204638        9.0997494207      -32.7475986050  TIP3      4342            0.0000000000
     30377      4479  TIP3      OH2           -27.5864644769       17.3850239167      -29.5397556135  TIP3      4343            0.0000000000
     30378      4479  TIP3      H1            -27.6963005689       18.3102072740      -29.8077245714  TIP3      4343            0.0000000000
     30379      4479  TIP3      H2            -28.3762801227       17.2762654601      -28.9549225953  TIP3      4343            0.0000000000
     30380      4480  TIP3      OH2           -31.5702808492       16.8534342546      -38.4246419417  TIP3      4344            0.0000000000
     30381      4480  TIP3      H1            -32.4321049805       16.3852923739      -38.5275941312  TIP3      4344            0.0000000000
     30382      4480  TIP3      H2            -31.6731650435       17.2953109315      -37.5687828852  TIP3      4344            0.0000000000
     30383      4481  TIP3      OH2           -17.8683962213       18.5067837007      -31.5180549981  TIP3      4345            0.0000000000
     30384      4481  TIP3      H1            -18.8071135356       18.6899590007      -31.2867411179  TIP3      4345            0.0000000000
     30385      4481  TIP3      H2            -17.6927050897       19.2459146500      -32.1200039955  TIP3      4345            0.0000000000
     30386      4482  TIP3      OH2           -17.0216338058        5.9454037588      -29.3865154480  TIP3      4346            0.0000000000
     30387      4482  TIP3      H1            -17.2913972063        6.8891688417      -29.3829732858  TIP3      4346            0.0000000000
     30388      4482  TIP3      H2            -16.4974024787        5.9146214091      -30.2059405451  TIP3      4346            0.0000000000
     30389      4483  TIP3      OH2           -25.0576140851        4.8033863172      -32.4264545441  TIP3      4347            0.0000000000
     30390      4483  TIP3      H1            -25.4900994000        4.0635620468      -32.8713429255  TIP3      4347            0.0000000000
     30391      4483  TIP3      H2            -25.8492912831        5.3615900608      -32.2202906168  TIP3      4347            0.0000000000
     30392      4484  TIP3      OH2           -19.2142844883       20.2173658026      -34.9514981985  TIP3      4348            0.0000000000
     30393      4484  TIP3      H1            -19.1598054671       19.3544688169      -35.4321070239  TIP3      4348            0.0000000000
     30394      4484  TIP3      H2            -19.1965428257       20.8424914166      -35.6989484887  TIP3      4348            0.0000000000
     30395      4485  TIP3      OH2           -18.3949133282       18.0739878107      -36.2974513170  TIP3      4349            0.0000000000
     30396      4485  TIP3      H1            -18.4611878836       17.4433084473      -37.0429630889  TIP3      4349            0.0000000000
     30397      4485  TIP3      H2            -18.5276398467       17.4626204918      -35.5348302517  TIP3      4349            0.0000000000
     30398      4486  TIP3      OH2           -16.6648818945       17.0604843087      -27.2959380501  TIP3      4350            0.0000000000
     30399      4486  TIP3      H1            -16.4529430002       16.3930249283      -27.9968718586  TIP3      4350            0.0000000000
     30400      4486  TIP3      H2            -16.6764299021       17.8353204210      -27.8962097257  TIP3      4350            0.0000000000
     30401      4487  TIP3      OH2           -22.3226706188       13.5161975954      -38.2272489920  TIP3      4351            0.0000000000
     30402      4487  TIP3      H1            -22.9420929727       14.2741850338      -38.0932093374  TIP3      4351            0.0000000000
     30403      4487  TIP3      H2            -21.5226337968       13.9893885107      -38.5164006237  TIP3      4351            0.0000000000
     30404      4488  TIP3      OH2           -22.4410306518       12.7653584773      -41.1046750533  TIP3      4352            0.0000000000
     30405      4488  TIP3      H1            -22.2573046886       13.0232329893      -40.1828286619  TIP3      4352            0.0000000000
     30406      4488  TIP3      H2            -22.2383354897       11.8231158954      -41.0774044987  TIP3      4352            0.0000000000
     30407      4489  TIP3      OH2           -15.4227973171       13.1130631492      -30.3525981978  TIP3      4353            0.0000000000
     30408      4489  TIP3      H1            -15.8478199405       13.9286592291      -30.0289168861  TIP3      4353            0.0000000000
     30409      4489  TIP3      H2            -14.5528874977       13.4475308515      -30.6623168305  TIP3      4353            0.0000000000
     30410      4490  TIP3      OH2           -18.4807685644       13.9378347276      -37.0049714924  TIP3      4354            0.0000000000
     30411      4490  TIP3      H1            -19.2452164972       14.0544001812      -36.3812757478  TIP3      4354            0.0000000000
     30412      4490  TIP3      H2            -17.8703477280       13.4398529512      -36.4207458886  TIP3      4354            0.0000000000
     30413      4491  TIP3      OH2           -19.3306717436       11.7504516819      -27.2893079503  TIP3      4355            0.0000000000
     30414      4491  TIP3      H1            -19.0097806132       12.4996803506      -26.7669131897  TIP3      4355            0.0000000000
     30415      4491  TIP3      H2            -19.6548393496       12.2035602922      -28.0875623309  TIP3      4355            0.0000000000
     30416      4492  TIP3      OH2           -27.7081549302       14.3555321127      -35.3263579273  TIP3      4356            0.0000000000
     30417      4492  TIP3      H1            -27.7505694954       13.9484795812      -36.2090604267  TIP3      4356            0.0000000000
     30418      4492  TIP3      H2            -27.0437324550       13.7668669416      -34.8897629779  TIP3      4356            0.0000000000
     30419      4493  TIP3      OH2           -25.9750597930       17.8167297246      -32.5544252263  TIP3      4357            0.0000000000
     30420      4493  TIP3      H1            -25.9436104263       17.6039577682      -33.4979943320  TIP3      4357            0.0000000000
     30421      4493  TIP3      H2            -25.4299224442       17.1248009889      -32.1460067084  TIP3      4357            0.0000000000
     30422      4494  TIP3      OH2           -26.7821207333       13.0122896707      -31.6010773282  TIP3      4358            0.0000000000
     30423      4494  TIP3      H1            -26.5959141264       13.1329054529      -32.5577567833  TIP3      4358            0.0000000000
     30424      4494  TIP3      H2            -26.6520329936       13.8924367183      -31.1946261634  TIP3      4358            0.0000000000
     30425      4495  TIP3      OH2           -20.3725295443       18.9748791264      -30.7719715214  TIP3      4359            0.0000000000
     30426      4495  TIP3      H1            -20.8003547384       19.5954342953      -30.1560178143  TIP3      4359            0.0000000000
     30427      4495  TIP3      H2            -20.7985475251       18.1359703696      -30.5051496682  TIP3      4359            0.0000000000
     30428      4496  TIP3      OH2           -26.1570790348       17.4743709542      -27.1491383344  TIP3      4360            0.0000000000
     30429      4496  TIP3      H1            -26.7666580402       18.1353896422      -26.7624549504  TIP3      4360            0.0000000000
     30430      4496  TIP3      H2            -26.5638204532       17.3482015577      -28.0303771024  TIP3      4360            0.0000000000
     30431      4497  TIP3      OH2           -19.7800115835       13.1542060992      -39.2337148752  TIP3      4361            0.0000000000
     30432      4497  TIP3      H1            -19.2268487461       13.5304331062      -38.5085702546  TIP3      4361            0.0000000000
     30433      4497  TIP3      H2            -19.3933535902       13.6090260997      -40.0160418430  TIP3      4361            0.0000000000
     30434      4498  TIP3      OH2           -28.7603497740       13.9297196653      -27.9734086389  TIP3      4362            0.0000000000
     30435      4498  TIP3      H1            -28.7725295611       14.3359149364      -27.0980654735  TIP3      4362            0.0000000000
     30436      4498  TIP3      H2            -29.6726874173       13.5642809956      -28.0352761455  TIP3      4362            0.0000000000
     30437      4499  TIP3      OH2           -22.8491594019       19.2839965161      -36.2287364446  TIP3      4363            0.0000000000
     30438      4499  TIP3      H1            -22.5353018696       19.9274512641      -35.5887460675  TIP3      4363            0.0000000000
     30439      4499  TIP3      H2            -23.2734220086       19.8596456757      -36.8819297728  TIP3      4363            0.0000000000
     30440      4500  TIP3      OH2           -27.6939296684       19.5203136509      -26.0832966867  TIP3      4364            0.0000000000
     30441      4500  TIP3      H1            -27.8446902484       19.6954876579      -27.0400549227  TIP3      4364            0.0000000000
     30442      4500  TIP3      H2            -28.6121415784       19.3783827214      -25.7830096354  TIP3      4364            0.0000000000
     30443      4501  TIP3      OH2           -15.9970377125        4.6001576934      -38.8992101223  TIP3      4365            0.0000000000
     30444      4501  TIP3      H1            -16.9836004629        4.6186119211      -38.9236615262  TIP3      4365            0.0000000000
     30445      4501  TIP3      H2            -15.8071688267        5.3970746029      -39.4334404645  TIP3      4365            0.0000000000
     30446      4502  TIP3      OH2           -28.2421594330       13.1789214573      -37.8183057594  TIP3      4366            0.0000000000
     30447      4502  TIP3      H1            -28.7341346374       13.9669518109      -38.1464307543  TIP3      4366            0.0000000000
     30448      4502  TIP3      H2            -28.9399376988       12.5566955630      -37.5764786750  TIP3      4366            0.0000000000
     30449      4503  TIP3      OH2           -14.9725064867       19.2224625977      -40.7694056667  TIP3      4367            0.0000000000
     30450      4503  TIP3      H1            -14.7153757312       20.1510139136      -40.8766888848  TIP3      4367            0.0000000000
     30451      4503  TIP3      H2            -14.1443421630       18.7673287168      -40.9855769259  TIP3      4367            0.0000000000
     30452      4504  TIP3      OH2           -31.7641650427       15.7450373425      -28.2894464054  TIP3      4368            0.0000000000
     30453      4504  TIP3      H1            -32.5469658416       15.6584755089      -28.8515355662  TIP3      4368            0.0000000000
     30454      4504  TIP3      H2            -31.5136808802       14.8041640284      -28.1823409563  TIP3      4368            0.0000000000
     30455      4505  TIP3      OH2           -32.4076332171       18.6771268401      -32.0141134180  TIP3      4369            0.0000000000
     30456      4505  TIP3      H1            -31.4858426525       18.3971304948      -32.1599954421  TIP3      4369            0.0000000000
     30457      4505  TIP3      H2            -32.3032657463       19.1804339974      -31.1803467126  TIP3      4369            0.0000000000
     30458      4506  TIP3      OH2           -14.5477668646       19.2459499690      -25.6886600193  TIP3      4370            0.0000000000
     30459      4506  TIP3      H1            -14.5891132196       18.3636022145      -25.2964691335  TIP3      4370            0.0000000000
     30460      4506  TIP3      H2            -15.4453787205       19.5892394090      -25.4860188961  TIP3      4370            0.0000000000
     30461      4507  TIP3      OH2           -23.6238374203       18.7634882573      -27.1548340798  TIP3      4371            0.0000000000
     30462      4507  TIP3      H1            -23.5391774613       19.6463492524      -26.7300995892  TIP3      4371            0.0000000000
     30463      4507  TIP3      H2            -24.5699495432       18.5461247011      -27.0751403882  TIP3      4371            0.0000000000
     30464      4508  TIP3      OH2           -22.7716725772       22.5726430182      -37.8952177353  TIP3      4372            0.0000000000
     30465      4508  TIP3      H1            -22.7266896000       22.7076639252      -38.8693241880  TIP3      4372            0.0000000000
     30466      4508  TIP3      H2            -22.6148463383       23.4737979343      -37.5408548426  TIP3      4372            0.0000000000
     30467      4509  TIP3      OH2           -28.5394604239       21.3614547456      -35.8231373024  TIP3      4373            0.0000000000
     30468      4509  TIP3      H1            -28.4909423539       21.2118748202      -34.8525552504  TIP3      4373            0.0000000000
     30469      4509  TIP3      H2            -29.2548707875       20.7333352356      -36.0820254510  TIP3      4373            0.0000000000
     30470      4510  TIP3      OH2           -19.7361451185       21.6741773659      -40.9056526903  TIP3      4374            0.0000000000
     30471      4510  TIP3      H1            -19.1271260570       21.0088196201      -41.2939805849  TIP3      4374            0.0000000000
     30472      4510  TIP3      H2            -19.5045876110       21.6597724120      -39.9667470576  TIP3      4374            0.0000000000
     30473      4511  TIP3      OH2           -20.0927941139       21.7642264935      -37.1884347813  TIP3      4375            0.0000000000
     30474      4511  TIP3      H1            -20.9943485518       22.1046871091      -37.3607791944  TIP3      4375            0.0000000000
     30475      4511  TIP3      H2            -20.1831600973       20.8474237560      -37.4795733249  TIP3      4375            0.0000000000
     30476      4512  TIP3      OH2           -17.1792789107       10.3914725974      -25.6937512654  TIP3      4376            0.0000000000
     30477      4512  TIP3      H1            -17.7762092936       10.7789479074      -26.3523599853  TIP3      4376            0.0000000000
     30478      4512  TIP3      H2            -16.9150044328        9.5571914634      -26.1342176374  TIP3      4376            0.0000000000
     30479      4513  TIP3      OH2           -29.4755945931       17.2276201144      -27.6520014349  TIP3      4377            0.0000000000
     30480      4513  TIP3      H1            -29.4629056552       16.8632488639      -26.7424290309  TIP3      4377            0.0000000000
     30481      4513  TIP3      H2            -30.3028749848       16.7973768709      -27.9693831111  TIP3      4377            0.0000000000
     30482      4514  TIP3      OH2           -27.3020241486        5.9787786757      -31.7550273894  TIP3      4378            0.0000000000
     30483      4514  TIP3      H1            -28.2189430005        6.0066159505      -32.1201076575  TIP3      4378            0.0000000000
     30484      4514  TIP3      H2            -27.4114516538        6.6013934083      -31.0069487216  TIP3      4378            0.0000000000
     30485      4515  TIP3      OH2           -22.5154135717        5.7354143419      -28.8679281393  TIP3      4379            0.0000000000
     30486      4515  TIP3      H1            -22.2348697784        5.3518989551      -28.0041440818  TIP3      4379            0.0000000000
     30487      4515  TIP3      H2            -23.4957865295        5.6738299414      -28.7716546086  TIP3      4379            0.0000000000
     30488      4516  TIP3      OH2           -19.6135421569        9.1081087542      -27.3997093302  TIP3      4380            0.0000000000
     30489      4516  TIP3      H1            -20.2670384430        9.0579763612      -26.6640433083  TIP3      4380            0.0000000000
     30490      4516  TIP3      H2            -19.3977266942       10.0625731548      -27.4209286930  TIP3      4380            0.0000000000
     30491      4517  TIP3      OH2           -18.4365520391       14.4125544797      -41.1365418302  TIP3      4381            0.0000000000
     30492      4517  TIP3      H1            -18.5345992889       14.6388103825      -42.0764595914  TIP3      4381            0.0000000000
     30493      4517  TIP3      H2            -17.6557500322       14.9290727398      -40.8765516665  TIP3      4381            0.0000000000
     30494      4518  TIP3      OH2           -22.9565434398        8.3110965394      -41.1434103037  TIP3      4382            0.0000000000
     30495      4518  TIP3      H1            -23.2515790162        8.1510565598      -40.2276691454  TIP3      4382            0.0000000000
     30496      4518  TIP3      H2            -23.0628498094        7.4334830674      -41.5115237977  TIP3      4382            0.0000000000
     30497      4519  TIP3      OH2           -26.8917279957       10.5655990434      -30.7387233252  TIP3      4383            0.0000000000
     30498      4519  TIP3      H1            -27.3937723214       10.7944616184      -29.9246438986  TIP3      4383            0.0000000000
     30499      4519  TIP3      H2            -26.8287908499       11.4660686382      -31.1339202824  TIP3      4383            0.0000000000
     30500      4520  TIP3      OH2           -27.0594959855       10.4562574587      -35.7431390867  TIP3      4384            0.0000000000
     30501      4520  TIP3      H1            -28.0161960561       10.6431548575      -35.8767288235  TIP3      4384            0.0000000000
     30502      4520  TIP3      H2            -26.8430442141       10.0801694567      -36.6147991347  TIP3      4384            0.0000000000
     30503      4521  TIP3      OH2           -21.3708488566       11.5286767692      -36.7115618168  TIP3      4385            0.0000000000
     30504      4521  TIP3      H1            -21.7845512885       12.1773347539      -37.3348358649  TIP3      4385            0.0000000000
     30505      4521  TIP3      H2            -20.6495605774       11.1863172337      -37.2720123883  TIP3      4385            0.0000000000
     30506      4522  TIP3      OH2           -23.0003916661       11.8383362754      -25.1549159844  TIP3      4386            0.0000000000
     30507      4522  TIP3      H1            -23.3717191207       10.9423677477      -25.0216896854  TIP3      4386            0.0000000000
     30508      4522  TIP3      H2            -22.1777669075       11.7911115652      -24.6491852488  TIP3      4386            0.0000000000
     30509      4523  TIP3      OH2           -21.7787081156       11.1259833708      -33.9870881763  TIP3      4387            0.0000000000
     30510      4523  TIP3      H1            -21.4522109264       11.6193606891      -34.7743760429  TIP3      4387            0.0000000000
     30511      4523  TIP3      H2            -21.0676012894       10.4699620680      -33.8880471049  TIP3      4387            0.0000000000
     30512      4524  TIP3      OH2           -29.9004359518       10.7738821339      -29.2389069656  TIP3      4388            0.0000000000
     30513      4524  TIP3      H1            -29.5762526658       11.0653074373      -28.3733209936  TIP3      4388            0.0000000000
     30514      4524  TIP3      H2            -30.0866135159        9.8405465017      -29.0445730222  TIP3      4388            0.0000000000
     30515      4525  TIP3      OH2           -26.3121133636        8.2334650105      -41.7006220746  TIP3      4389            0.0000000000
     30516      4525  TIP3      H1            -26.6194498254        7.7263340191      -40.9288030831  TIP3      4389            0.0000000000
     30517      4525  TIP3      H2            -26.4536395121        9.1623424242      -41.3987552673  TIP3      4389            0.0000000000
     30518      4526  TIP3      OH2           -31.5923797029        8.2951431912      -35.1554308139  TIP3      4390            0.0000000000
     30519      4526  TIP3      H1            -31.7313432352        7.8238501309      -34.3203265721  TIP3      4390            0.0000000000
     30520      4526  TIP3      H2            -31.9626820381        7.6842102788      -35.8092776774  TIP3      4390            0.0000000000
     30521      4527  TIP3      OH2           -31.2588922679        8.5174499982      -39.5648005523  TIP3      4391            0.0000000000
     30522      4527  TIP3      H1            -30.7308159613        9.1572881403      -40.0866175032  TIP3      4391            0.0000000000
     30523      4527  TIP3      H2            -32.0500337535        9.0609114670      -39.4373689084  TIP3      4391            0.0000000000
     30524      4528  TIP3      OH2           -21.3947474516       12.9452748918      -29.7391162334  TIP3      4392            0.0000000000
     30525      4528  TIP3      H1            -20.7009937152       12.4148256209      -30.1952630853  TIP3      4392            0.0000000000
     30526      4528  TIP3      H2            -21.8841069400       12.2683190265      -29.2547124181  TIP3      4392            0.0000000000
     30527      4529  TIP3      OH2           -24.0737597566        8.0818222357      -34.1791497644  TIP3      4393            0.0000000000
     30528      4529  TIP3      H1            -24.3969323437        8.8806699407      -33.7153097600  TIP3      4393            0.0000000000
     30529      4529  TIP3      H2            -23.5954519202        7.5936296591      -33.4839076758  TIP3      4393            0.0000000000
     30530      4530  TIP3      OH2           -29.7461284006       10.3264705537      -36.0714722387  TIP3      4394            0.0000000000
     30531      4530  TIP3      H1            -30.3821700056       10.4632764298      -36.7820970804  TIP3      4394            0.0000000000
     30532      4530  TIP3      H2            -30.0026329061        9.4183714714      -35.8127251731  TIP3      4394            0.0000000000
     30533      4531  TIP3      OH2           -26.9515686994        9.8638173651      -38.4148632741  TIP3      4395            0.0000000000
     30534      4531  TIP3      H1            -26.0414804728       10.1336568931      -38.2549719670  TIP3      4395            0.0000000000
     30535      4531  TIP3      H2            -27.1340795860       10.3590429824      -39.2501074042  TIP3      4395            0.0000000000
     30536      4532  TIP3      OH2           -20.5743156202        7.6019006053      -31.7829861376  TIP3      4396            0.0000000000
     30537      4532  TIP3      H1            -20.9403424179        7.6564609953      -30.8739338680  TIP3      4396            0.0000000000
     30538      4532  TIP3      H2            -21.1446021101        6.9072839835      -32.1727676629  TIP3      4396            0.0000000000
     30539      4533  TIP3      OH2           -27.1431601993       10.6462995148      -40.9131853886  TIP3      4397            0.0000000000
     30540      4533  TIP3      H1            -27.9374318608       10.9252340181      -41.3873543458  TIP3      4397            0.0000000000
     30541      4533  TIP3      H2            -26.4418533636       11.2576056515      -41.2429452668  TIP3      4397            0.0000000000
     30542      4534  TIP3      OH2           -17.5206259077       23.1895929953      -25.0203281960  TIP3      4398            0.0000000000
     30543      4534  TIP3      H1            -16.9743633113       23.4943638017      -25.7747313670  TIP3      4398            0.0000000000
     30544      4534  TIP3      H2            -17.1705153372       23.7524747531      -24.3235078460  TIP3      4398            0.0000000000
     30545      4535  TIP3      OH2           -30.0769466317       16.0489349086      -25.2659385121  TIP3      4399            0.0000000000
     30546      4535  TIP3      H1            -29.2549318902       15.8457811210      -24.7628116039  TIP3      4399            0.0000000000
     30547      4535  TIP3      H2            -30.7948931590       15.8522117747      -24.6214928897  TIP3      4399            0.0000000000
     30548      4536  TIP3      OH2           -24.3907418443       10.6869862930      -33.3890004745  TIP3      4400            0.0000000000
     30549      4536  TIP3      H1            -23.4205535427       10.8362187417      -33.5159473872  TIP3      4400            0.0000000000
     30550      4536  TIP3      H2            -24.4476045559       10.3681850533      -32.4762579890  TIP3      4400            0.0000000000
     30551      4537  TIP3      OH2           -28.5024919696        6.9285968962      -36.2697751854  TIP3      4401            0.0000000000
     30552      4537  TIP3      H1            -28.9135112629        6.1493378474      -35.8286121916  TIP3      4401            0.0000000000
     30553      4537  TIP3      H2            -28.0569110211        6.5421711682      -37.0306656729  TIP3      4401            0.0000000000
     30554      4538  TIP3      OH2           -24.6297455133        9.2107280337      -30.4003840563  TIP3      4402            0.0000000000
     30555      4538  TIP3      H1            -25.4345219483        9.7426146344      -30.5714540296  TIP3      4402            0.0000000000
     30556      4538  TIP3      H2            -24.1336208703        9.7731587434      -29.7911375951  TIP3      4402            0.0000000000
     30557      4539  TIP3      OH2           -24.1713468745       15.4129798905      -38.2005786675  TIP3      4403            0.0000000000
     30558      4539  TIP3      H1            -24.9199377774       14.9639581603      -38.6558373128  TIP3      4403            0.0000000000
     30559      4539  TIP3      H2            -24.6549237025       15.8297317062      -37.4518532029  TIP3      4403            0.0000000000
     30560      4540  TIP3      OH2           -16.4609324691       15.6039153409      -29.4768778972  TIP3      4404            0.0000000000
     30561      4540  TIP3      H1            -15.9658451670       16.0855127750      -30.1928304536  TIP3      4404            0.0000000000
     30562      4540  TIP3      H2            -17.3492725977       15.5638696747      -29.8700009918  TIP3      4404            0.0000000000
     30563      4541  TIP3      OH2           -20.2417470914        8.7885914617      -39.5589796576  TIP3      4405            0.0000000000
     30564      4541  TIP3      H1            -20.7870939431        9.2102380976      -40.2413371802  TIP3      4405            0.0000000000
     30565      4541  TIP3      H2            -19.7115335263        9.5369231473      -39.2109766998  TIP3      4405            0.0000000000
     30566      4542  TIP3      OH2           -23.1734654493       16.0498958817      -27.4346076677  TIP3      4406            0.0000000000
     30567      4542  TIP3      H1            -23.5470449110       15.6124896005      -26.6545338498  TIP3      4406            0.0000000000
     30568      4542  TIP3      H2            -23.2646298496       16.9912091424      -27.1904569526  TIP3      4406            0.0000000000
     30569      4543  TIP3      OH2           -19.0669621798       10.7983639287      -38.2209330912  TIP3      4407            0.0000000000
     30570      4543  TIP3      H1            -18.3078190927       10.9954754709      -37.6521292783  TIP3      4407            0.0000000000
     30571      4543  TIP3      H2            -19.2141992345       11.6452876723      -38.6928308052  TIP3      4407            0.0000000000
     30572      4544  TIP3      OH2           -29.2338525187       15.2628418902      -33.1303458292  TIP3      4408            0.0000000000
     30573      4544  TIP3      H1            -28.8413887216       15.0151414964      -33.9890673095  TIP3      4408            0.0000000000
     30574      4544  TIP3      H2            -28.9873856070       14.5106514601      -32.5644730541  TIP3      4408            0.0000000000
     30575      4545  TIP3      OH2           -22.3226754771       16.9142724279      -39.4931770309  TIP3      4409            0.0000000000
     30576      4545  TIP3      H1            -22.7736091156       17.7884562397      -39.4136660402  TIP3      4409            0.0000000000
     30577      4545  TIP3      H2            -22.9792716310       16.3093115166      -39.0772028384  TIP3      4409            0.0000000000
     30578      4546  TIP3      OH2           -31.4119954868       13.0841461729      -27.8470031174  TIP3      4410            0.0000000000
     30579      4546  TIP3      H1            -31.6632057162       13.0574714487      -26.9025761497  TIP3      4410            0.0000000000
     30580      4546  TIP3      H2            -32.2791332036       12.8457607978      -28.2554918197  TIP3      4410            0.0000000000
     30581      4547  TIP3      OH2           -25.4933504992       13.0932520245      -25.9077202726  TIP3      4411            0.0000000000
     30582      4547  TIP3      H1            -25.6462078098       12.9772570045      -26.8636555138  TIP3      4411            0.0000000000
     30583      4547  TIP3      H2            -24.6793344330       12.5683645189      -25.7659352749  TIP3      4411            0.0000000000
     30584      4548  TIP3      OH2           -20.2894910021       18.4946962489      -27.2974562717  TIP3      4412            0.0000000000
     30585      4548  TIP3      H1            -21.0224410857       18.3688202226      -27.9119033348  TIP3      4412            0.0000000000
     30586      4548  TIP3      H2            -20.7369741472       18.9085532291      -26.5294064909  TIP3      4412            0.0000000000
     30587      4549  TIP3      OH2           -14.4839354436       10.4027329215      -39.0633231934  TIP3      4413            0.0000000000
     30588      4549  TIP3      H1            -15.1518275708       10.4076919051      -39.7880957908  TIP3      4413            0.0000000000
     30589      4549  TIP3      H2            -13.9839564139       11.1940128600      -39.3041694730  TIP3      4413            0.0000000000
     30590      4550  TIP3      OH2           -14.4927804290       16.1236026691      -26.0318317987  TIP3      4414            0.0000000000
     30591      4550  TIP3      H1            -15.3024851391       16.5677478888      -26.3710330434  TIP3      4414            0.0000000000
     30592      4550  TIP3      H2            -13.9559528189       16.0830297154      -26.8579448963  TIP3      4414            0.0000000000
     30593      4551  TIP3      OH2           -16.8411021983       19.4781525558      -38.9008674780  TIP3      4415            0.0000000000
     30594      4551  TIP3      H1            -16.9633496746       18.5586203681      -38.6478009410  TIP3      4415            0.0000000000
     30595      4551  TIP3      H2            -16.1483078687       19.4034845942      -39.5955253406  TIP3      4415            0.0000000000
     30596      4552  TIP3      OH2           -19.3369758361       14.3321061419      -31.7490344997  TIP3      4416            0.0000000000
     30597      4552  TIP3      H1            -20.2354144982       14.1183364455      -32.0707196021  TIP3      4416            0.0000000000
     30598      4552  TIP3      H2            -18.7834489780       13.6598846289      -32.1832551311  TIP3      4416            0.0000000000
     30599      4553  TIP3      OH2           -26.8969645664       18.5327203880      -35.4507772589  TIP3      4417            0.0000000000
     30600      4553  TIP3      H1            -26.6408996237       19.4666244452      -35.6020527124  TIP3      4417            0.0000000000
     30601      4553  TIP3      H2            -27.6826320002       18.4639961394      -36.0150903193  TIP3      4417            0.0000000000
     30602      4554  TIP3      OH2           -31.5194103347       13.3538681794      -40.0814732069  TIP3      4418            0.0000000000
     30603      4554  TIP3      H1            -30.5771046777       13.4460855548      -40.2947589511  TIP3      4418            0.0000000000
     30604      4554  TIP3      H2            -31.6995690246       14.2327748987      -39.7151609341  TIP3      4418            0.0000000000
     30605      4555  TIP3      OH2           -25.6066429655       16.2699712603      -36.0448821194  TIP3      4419            0.0000000000
     30606      4555  TIP3      H1            -25.9574071800       17.1720888354      -35.8738463647  TIP3      4419            0.0000000000
     30607      4555  TIP3      H2            -26.2410366520       15.6985788738      -35.5835909960  TIP3      4419            0.0000000000
     30608      4556  TIP3      OH2           -24.8944212491       20.4786335826      -29.0977355986  TIP3      4420            0.0000000000
     30609      4556  TIP3      H1            -24.1376739955       20.9882030626      -29.4389842675  TIP3      4420            0.0000000000
     30610      4556  TIP3      H2            -24.4538497517       19.8921355109      -28.4540970281  TIP3      4420            0.0000000000
     30611      4557  TIP3      OH2           -26.0204278848       20.9048516942      -36.6420810926  TIP3      4421            0.0000000000
     30612      4557  TIP3      H1            -26.9814764539       21.0770637858      -36.5057573575  TIP3      4421            0.0000000000
     30613      4557  TIP3      H2            -25.6827168386       21.7312012731      -36.2465414633  TIP3      4421            0.0000000000
     30614      4558  TIP3      OH2           -21.6447792017       16.6302740524      -29.9038980038  TIP3      4422            0.0000000000
     30615      4558  TIP3      H1            -21.9403445534       16.3456982210      -29.0116382494  TIP3      4422            0.0000000000
     30616      4558  TIP3      H2            -21.0344292613       15.9064720393      -30.1334656359  TIP3      4422            0.0000000000
     30617      4559  TIP3      OH2           -19.0406259718       17.6607553702      -40.4190494919  TIP3      4423            0.0000000000
     30618      4559  TIP3      H1            -18.7815025028       17.2896211279      -39.5401843483  TIP3      4423            0.0000000000
     30619      4559  TIP3      H2            -19.9492373192       17.3283515060      -40.4908404853  TIP3      4423            0.0000000000
     30620      4560  TIP3      OH2           -18.3414212682       20.4440630879      -27.6651997881  TIP3      4424            0.0000000000
     30621      4560  TIP3      H1            -19.1688184365       19.9280444940      -27.5396035014  TIP3      4424            0.0000000000
     30622      4560  TIP3      H2            -18.6034110107       21.1138220355      -28.3351968740  TIP3      4424            0.0000000000
     30623      4561  TIP3      OH2           -14.2514893327       22.0391244651      -40.5206655076  TIP3      4425            0.0000000000
     30624      4561  TIP3      H1            -13.6408464605       22.8026680791      -40.4949877464  TIP3      4425            0.0000000000
     30625      4561  TIP3      H2            -15.1075123382       22.4897140979      -40.3398695526  TIP3      4425            0.0000000000
     30626      4562  TIP3      OH2           -30.1948579660        8.1053358056      -28.0834862965  TIP3      4426            0.0000000000
     30627      4562  TIP3      H1            -30.7688141892        8.6950380180      -27.5409066741  TIP3      4426            0.0000000000
     30628      4562  TIP3      H2            -30.3519233323        7.2400358053      -27.6755184268  TIP3      4426            0.0000000000
     30629      4563  TIP3      OH2           -18.1541672927       16.2043397846      -38.3419307740  TIP3      4427            0.0000000000
     30630      4563  TIP3      H1            -18.3551568046       15.3737462790      -37.8468635945  TIP3      4427            0.0000000000
     30631      4563  TIP3      H2            -17.2125670475       16.0419516313      -38.5328026218  TIP3      4427            0.0000000000
     30632      4564  TIP3      OH2           -30.9472910405       19.8086432259      -29.9241161702  TIP3      4428            0.0000000000
     30633      4564  TIP3      H1            -30.1762765040       19.3473613379      -29.5571418159  TIP3      4428            0.0000000000
     30634      4564  TIP3      H2            -31.0126061966       20.5868434796      -29.3521887878  TIP3      4428            0.0000000000
     30635      4565  TIP3      OH2           -25.9855069999       18.0670862925      -39.8309530516  TIP3      4429            0.0000000000
     30636      4565  TIP3      H1            -25.7581193097       17.6930992253      -38.9675565414  TIP3      4429            0.0000000000
     30637      4565  TIP3      H2            -25.7395225400       19.0064188381      -39.6808270795  TIP3      4429            0.0000000000
     30638      4566  TIP3      OH2           -29.4917421975       15.3714513118      -39.1229056455  TIP3      4430            0.0000000000
     30639      4566  TIP3      H1            -30.2485221842       15.9054532684      -38.7765875644  TIP3      4430            0.0000000000
     30640      4566  TIP3      H2            -29.1177811814       15.9977076465      -39.7628770488  TIP3      4430            0.0000000000
     30641      4567  TIP3      OH2           -21.4122032300        8.3499481514      -29.2450444524  TIP3      4431            0.0000000000
     30642      4567  TIP3      H1            -20.6637381552        8.4617982402      -28.6192469254  TIP3      4431            0.0000000000
     30643      4567  TIP3      H2            -21.8105210388        7.5259645056      -28.9114666086  TIP3      4431            0.0000000000
     30644      4568  TIP3      OH2           -21.4839031014        7.5340349318      -37.5940687267  TIP3      4432            0.0000000000
     30645      4568  TIP3      H1            -21.0048219622        7.9721799500      -38.3433024240  TIP3      4432            0.0000000000
     30646      4568  TIP3      H2            -21.0896998195        8.0276285683      -36.8311209486  TIP3      4432            0.0000000000
     30647      4569  TIP3      OH2           -23.1060998179       19.5326369359      -39.3445227438  TIP3      4433            0.0000000000
     30648      4569  TIP3      H1            -23.8825598011       20.1008979203      -39.1575866518  TIP3      4433            0.0000000000
     30649      4569  TIP3      H2            -22.8481752969       19.8880425197      -40.2212332434  TIP3      4433            0.0000000000
     30650      4570  TIP3      OH2           -23.6193832038        9.4531079937      -36.6079923812  TIP3      4434            0.0000000000
     30651      4570  TIP3      H1            -23.0166611821       10.1994633446      -36.4334484769  TIP3      4434            0.0000000000
     30652      4570  TIP3      H2            -23.6443790285        8.9952371694      -35.7473397514  TIP3      4434            0.0000000000
     30653      4571  TIP3      OH2           -22.9091321392       10.6168828845      -27.6345370663  TIP3      4435            0.0000000000
     30654      4571  TIP3      H1            -22.6876143088       11.0270674325      -26.7830284311  TIP3      4435            0.0000000000
     30655      4571  TIP3      H2            -22.3471363343        9.8238332856      -27.6798398637  TIP3      4435            0.0000000000
     30656      4572  TIP3      OH2           -23.1593644647        5.8348258699      -36.0925984650  TIP3      4436            0.0000000000
     30657      4572  TIP3      H1            -23.7963947695        6.5151624133      -35.8050756484  TIP3      4436            0.0000000000
     30658      4572  TIP3      H2            -22.5584172987        6.4233904389      -36.5962900833  TIP3      4436            0.0000000000
     30659      4573  TIP3      OH2           -25.5898776354       20.6985275923      -39.3437979866  TIP3      4437            0.0000000000
     30660      4573  TIP3      H1            -25.2993582737       21.5780315207      -39.6757926780  TIP3      4437            0.0000000000
     30661      4573  TIP3      H2            -25.9670406699       20.9490274185      -38.4756209866  TIP3      4437            0.0000000000
     30662      4574  TIP3      OH2           -27.2769835873        7.2478645295      -39.1833026068  TIP3      4438            0.0000000000
     30663      4574  TIP3      H1            -27.4283890223        8.1283436468      -38.7663905928  TIP3      4438            0.0000000000
     30664      4574  TIP3      H2            -26.3154276750        7.1773957707      -39.0737140287  TIP3      4438            0.0000000000
     30665      4575  TIP3      OH2           -17.1699765547        8.0939348482      -27.1385159605  TIP3      4439            0.0000000000
     30666      4575  TIP3      H1            -18.1551688986        8.1103317498      -27.1616309075  TIP3      4439            0.0000000000
     30667      4575  TIP3      H2            -17.0234039206        8.5175471574      -28.0137089270  TIP3      4439            0.0000000000
     30668      4576  TIP3      OH2           -18.5457363045       12.0079850510      -33.4666994521  TIP3      4440            0.0000000000
     30669      4576  TIP3      H1            -19.1437300648       11.7384204495      -32.7422362821  TIP3      4440            0.0000000000
     30670      4576  TIP3      H2            -17.6828999387       11.6783074346      -33.1157043402  TIP3      4440            0.0000000000
     30671      4577  TIP3      OH2           -28.7234522267       18.3620504680      -40.7979349120  TIP3      4441            0.0000000000
     30672      4577  TIP3      H1            -27.7918610063       18.3178646920      -40.5154207274  TIP3      4441            0.0000000000
     30673      4577  TIP3      H2            -28.6608718410       18.1670683518      -41.7427360535  TIP3      4441            0.0000000000
     30674      4578  TIP3      OH2           -30.2920308867       10.5133027642      -41.0991044039  TIP3      4442            0.0000000000
     30675      4578  TIP3      H1            -30.4201899938       11.4507756009      -41.2947576377  TIP3      4442            0.0000000000
     30676      4578  TIP3      H2            -30.8788535058       10.0766625659      -41.7271879485  TIP3      4442            0.0000000000
     30677      4579  TIP3      OH2           -17.1975877806       21.5000002331      -31.4692364850  TIP3      4443            0.0000000000
     30678      4579  TIP3      H1            -17.2804283487       22.1509671497      -32.1944936901  TIP3      4443            0.0000000000
     30679      4579  TIP3      H2            -16.2193229591       21.3945247188      -31.4536981103  TIP3      4443            0.0000000000
     30680      4580  TIP3      OH2           -29.7217869195        5.4776051081      -32.6606943096  TIP3      4444            0.0000000000
     30681      4580  TIP3      H1            -29.7705822037        5.3646138816      -33.6314804871  TIP3      4444            0.0000000000
     30682      4580  TIP3      H2            -29.9854311578        4.5646037602      -32.3819332683  TIP3      4444            0.0000000000
     30683      4581  TIP3      OH2           -30.5139150140       19.7159260470      -36.2681075283  TIP3      4445            0.0000000000
     30684      4581  TIP3      H1            -31.3156816524       19.8813685305      -35.7519972583  TIP3      4445            0.0000000000
     30685      4581  TIP3      H2            -30.8316672635       19.9829990762      -37.1622745103  TIP3      4445            0.0000000000
     30686      4582  TIP3      OH2           -31.1787823110       22.3069597046      -24.8607829255  TIP3      4446            0.0000000000
     30687      4582  TIP3      H1            -31.7772753828       21.8014367491      -24.2942152520  TIP3      4446            0.0000000000
     30688      4582  TIP3      H2            -30.6245570315       21.6159466873      -25.2512962709  TIP3      4446            0.0000000000
     30689      4583  TIP3      OH2           -27.2798083100       21.0981615904      -23.6280046711  TIP3      4447            0.0000000000
     30690      4583  TIP3      H1            -26.5690798920       20.7643472073      -23.0520850498  TIP3      4447            0.0000000000
     30691      4583  TIP3      H2            -27.2341752722       20.4837039162      -24.3741588720  TIP3      4447            0.0000000000
     30692      4584  TIP3      OH2           -20.7757478415       19.6768149916      -24.8082093416  TIP3      4448            0.0000000000
     30693      4584  TIP3      H1            -21.1416128494       18.7951425361      -24.5453709763  TIP3      4448            0.0000000000
     30694      4584  TIP3      H2            -19.9035466325       19.6876388500      -24.3537146205  TIP3      4448            0.0000000000
     30695      4585  TIP3      OH2           -17.8806878218       19.8495627954      -42.2740194454  TIP3      4449            0.0000000000
     30696      4585  TIP3      H1            -18.2437476373       19.1461174099      -41.6951593540  TIP3      4449            0.0000000000
     30697      4585  TIP3      H2            -17.0110173902       19.4720008862      -42.5008329659  TIP3      4449            0.0000000000
     30698      4586  TIP3      OH2           -32.3715824265       15.4836067892      -23.7613416671  TIP3      4450            0.0000000000
     30699      4586  TIP3      H1            -32.5398647994       14.7779429959      -24.4081755822  TIP3      4450            0.0000000000
     30700      4586  TIP3      H2            -33.1744634390       16.0124501228      -23.9030125912  TIP3      4450            0.0000000000
     30701      4587  TIP3      OH2           -27.1626859005       16.1673782466      -42.5612352344  TIP3      4451            0.0000000000
     30702      4587  TIP3      H1            -26.9258578420       15.9815271597      -41.6439261387  TIP3      4451            0.0000000000
     30703      4587  TIP3      H2            -26.8869091089       15.3402933775      -43.0165967581  TIP3      4451            0.0000000000
     30704      4588  TIP3      OH2           -25.2272411261       15.6962306642      -25.3528001021  TIP3      4452            0.0000000000
     30705      4588  TIP3      H1            -25.4896489152       16.2719697826      -26.1121039128  TIP3      4452            0.0000000000
     30706      4588  TIP3      H2            -25.3466252566       14.7714425951      -25.6788183754  TIP3      4452            0.0000000000
     30707      4589  TIP3      OH2           -19.3567905397       15.7127016316      -27.4087491120  TIP3      4453            0.0000000000
     30708      4589  TIP3      H1            -18.5640683083       16.2692664553      -27.3296344197  TIP3      4453            0.0000000000
     30709      4589  TIP3      H2            -20.0373900949       16.3876172374      -27.2739452796  TIP3      4453            0.0000000000
     30710      4590  TIP3      OH2           -31.4091274273       12.9699569403      -24.9168482546  TIP3      4454            0.0000000000
     30711      4590  TIP3      H1            -30.7618006679       12.2479987145      -25.0395168628  TIP3      4454            0.0000000000
     30712      4590  TIP3      H2            -30.9459784467       13.5662473855      -24.3144091367  TIP3      4454            0.0000000000
     30713      4591  TIP3      OH2           -26.0911856638       14.0034750293      -39.4717950906  TIP3      4455            0.0000000000
     30714      4591  TIP3      H1            -26.8043192952       13.5296164902      -38.9963995339  TIP3      4455            0.0000000000
     30715      4591  TIP3      H2            -25.8236880052       13.3686755638      -40.1687363770  TIP3      4455            0.0000000000
     30716      4592  TIP3      OH2           -27.2436958711       11.7275840641      -28.3148093959  TIP3      4456            0.0000000000
     30717      4592  TIP3      H1            -27.6890544766       12.5970756416      -28.1825266317  TIP3      4456            0.0000000000
     30718      4592  TIP3      H2            -26.3447193927       12.0320777796      -28.5743935598  TIP3      4456            0.0000000000
     30719      4593  TIP3      OH2           -25.1642674359       12.3634377662      -41.5011884049  TIP3      4457            0.0000000000
     30720      4593  TIP3      H1            -25.1705776503       13.0238681452      -42.2161335883  TIP3      4457            0.0000000000
     30721      4593  TIP3      H2            -24.2129327630       12.3754045004      -41.2585905379  TIP3      4457            0.0000000000
     30722      4594  TIP3      OH2           -21.5839976026       15.0421539805      -24.1203919381  TIP3      4458            0.0000000000
     30723      4594  TIP3      H1            -20.7475132837       14.8015061847      -24.5611056955  TIP3      4458            0.0000000000
     30724      4594  TIP3      H2            -22.1765710212       14.3088725251      -24.3033643450  TIP3      4458            0.0000000000
     30725      4595  TIP3      OH2           -15.7609105315       14.9956041047      -42.7401996374  TIP3      4459            0.0000000000
     30726      4595  TIP3      H1            -16.3143019635       15.0059967539      -43.5372783845  TIP3      4459            0.0000000000
     30727      4595  TIP3      H2            -15.5500356099       15.9392684177      -42.6397929091  TIP3      4459            0.0000000000
     30728      4596  TIP3      OH2           -26.5382045356        9.8494544767      -26.5102075444  TIP3      4460            0.0000000000
     30729      4596  TIP3      H1            -26.4281616758        9.0437045491      -27.0597520162  TIP3      4460            0.0000000000
     30730      4596  TIP3      H2            -26.7974100003       10.5143729736      -27.1849068261  TIP3      4460            0.0000000000
     30731      4597  TIP3      OH2           -26.1871861974        7.8675513092      -28.5664411293  TIP3      4461            0.0000000000
     30732      4597  TIP3      H1            -25.5385995279        7.9967367313      -29.2931039460  TIP3      4461            0.0000000000
     30733      4597  TIP3      H2            -27.0085527371        8.1144689465      -29.0435162604  TIP3      4461            0.0000000000
     30734      4598  TIP3      OH2           -24.8448013102       13.2516568179      -28.8281029966  TIP3      4462            0.0000000000
     30735      4598  TIP3      H1            -23.9945568414       13.4810163824      -29.2356939423  TIP3      4462            0.0000000000
     30736      4598  TIP3      H2            -25.3989509178       13.9661710513      -29.2158121626  TIP3      4462            0.0000000000
     30737      4599  TIP3      OH2           -18.5836949351       14.1214939726      -25.3973202008  TIP3      4463            0.0000000000
     30738      4599  TIP3      H1            -18.8731098142       14.5284616962      -26.2420729463  TIP3      4463            0.0000000000
     30739      4599  TIP3      H2            -17.6268502946       13.9721018731      -25.5860422994  TIP3      4463            0.0000000000
     30740      4600  TIP3      OH2           -28.9281156924       10.9127195564      -25.1004927067  TIP3      4464            0.0000000000
     30741      4600  TIP3      H1            -29.1299579937        9.9727029266      -24.9116950575  TIP3      4464            0.0000000000
     30742      4600  TIP3      H2            -28.0421273631       10.8563537813      -25.4977195527  TIP3      4464            0.0000000000
     30743      4601  TIP3      OH2           -25.1587453535        5.2314288793      -28.7223213969  TIP3      4465            0.0000000000
     30744      4601  TIP3      H1            -25.6411365019        6.0739507812      -28.5602370792  TIP3      4465            0.0000000000
     30745      4601  TIP3      H2            -25.8578276369        4.6924144235      -29.1317393539  TIP3      4465            0.0000000000
     30746      4602  TIP3      OH2           -24.1846858163        9.2952738699      -24.4173354620  TIP3      4466            0.0000000000
     30747      4602  TIP3      H1            -24.7239733678        8.9152466089      -23.6906376671  TIP3      4466            0.0000000000
     30748      4602  TIP3      H2            -24.8241235053        9.2298925357      -25.1526014837  TIP3      4466            0.0000000000
     30749      4603  TIP3      OH2           -21.4193355658        8.7048152591      -25.4941453343  TIP3      4467            0.0000000000
     30750      4603  TIP3      H1            -22.3376939526        8.4643592675      -25.2977449664  TIP3      4467            0.0000000000
     30751      4603  TIP3      H2            -20.9241092096        8.1358973536      -24.8630705635  TIP3      4467            0.0000000000
     30752      4604  TIP3      OH2           -20.0675345572        6.9228148547      -23.7856826906  TIP3      4468            0.0000000000
     30753      4604  TIP3      H1            -20.1808108650        5.9758422891      -24.0304303644  TIP3      4468            0.0000000000
     30754      4604  TIP3      H2            -19.3938307454        6.8466964471      -23.1064661592  TIP3      4468            0.0000000000
     30755      4605  TIP3      OH2           -30.2689829297        8.3100364346      -24.4200895829  TIP3      4469            0.0000000000
     30756      4605  TIP3      H1            -30.1523404337        7.7081443191      -25.1752330332  TIP3      4469            0.0000000000
     30757      4605  TIP3      H2            -30.8562509554        7.7810237876      -23.8586934326  TIP3      4469            0.0000000000
     30758      4606  TIP3      OH2           -25.7321691568        4.2825123760      -26.2179810289  TIP3      4470            0.0000000000
     30759      4606  TIP3      H1            -25.1852825528        3.4749621006      -26.1696536714  TIP3      4470            0.0000000000
     30760      4606  TIP3      H2            -25.3777127787        4.6847893385      -27.0365464340  TIP3      4470            0.0000000000
     30761      4607  TIP3      OH2           -25.0683102915       23.1912755978      -40.2221617145  TIP3      4471            0.0000000000
     30762      4607  TIP3      H1            -24.3772615129       23.7658524214      -39.8585152696  TIP3      4471            0.0000000000
     30763      4607  TIP3      H2            -25.4385188712       23.7143945332      -40.9406676517  TIP3      4471            0.0000000000
     30764      4608  TIP3      OH2           -31.4917515928       16.4707389519      -41.6397767248  TIP3      4472            0.0000000000
     30765      4608  TIP3      H1            -31.2586889203       17.0614936697      -40.9112346200  TIP3      4472            0.0000000000
     30766      4608  TIP3      H2            -31.6053472028       17.0896859117      -42.3884708377  TIP3      4472            0.0000000000
     30767      4609  TIP3      OH2            33.0635047112       22.7158752365      -36.1833551284  TIP3      4473            0.0000000000
     30768      4609  TIP3      H1             32.2902360569       22.1406871254      -36.1788166373  TIP3      4473            0.0000000000
     30769      4609  TIP3      H2             33.6470661513       22.2480516768      -35.5594368807  TIP3      4473            0.0000000000
     30770      4610  TIP3      OH2           -32.1962549706       21.0490861059      -34.1937321977  TIP3      4474            0.0000000000
     30771      4610  TIP3      H1            -32.3269655712       20.1772190184      -33.7835656123  TIP3      4474            0.0000000000
     30772      4610  TIP3      H2            -31.9276329884       21.5819568480      -33.4185139801  TIP3      4474            0.0000000000
     30773      4611  TIP3      OH2           -14.4898788064       21.5214592571      -31.2397892403  TIP3      4475            0.0000000000
     30774      4611  TIP3      H1            -14.2064720518       21.7220894871      -30.3326512870  TIP3      4475            0.0000000000
     30775      4611  TIP3      H2            -13.6833447351       21.7554096264      -31.7272750130  TIP3      4475            0.0000000000
     30776      4612  TIP3      OH2           -15.0987350709       21.0917430120      -28.3216899761  TIP3      4476            0.0000000000
     30777      4612  TIP3      H1            -15.5000155384       20.5284432331      -29.0215543824  TIP3      4476            0.0000000000
     30778      4612  TIP3      H2            -14.9418016407       20.4111468232      -27.6468783870  TIP3      4476            0.0000000000
     30779      4613  TIP3      OH2           -16.3742632230       17.4776422456      -23.5843590348  TIP3      4477            0.0000000000
     30780      4613  TIP3      H1            -17.0980068524       17.2119423720      -22.9675139607  TIP3      4477            0.0000000000
     30781      4613  TIP3      H2            -16.8596469759       17.6942174427      -24.3953816718  TIP3      4477            0.0000000000
     30782      4614  TIP3      OH2           -15.4466377371       15.3567053547      -38.7641744134  TIP3      4478            0.0000000000
     30783      4614  TIP3      H1            -14.6081794285       15.7642889793      -38.4470447887  TIP3      4478            0.0000000000
     30784      4614  TIP3      H2            -15.5888719589       14.7272814283      -38.0252108496  TIP3      4478            0.0000000000
     30785      4615  TIP3      OH2           -14.8474702833       14.1364133670      -36.3359127687  TIP3      4479            0.0000000000
     30786      4615  TIP3      H1            -15.6457645398       13.6582213337      -36.0324230526  TIP3      4479            0.0000000000
     30787      4615  TIP3      H2            -14.3103357561       14.0865652417      -35.5268587349  TIP3      4479            0.0000000000
     30788      4616  TIP3      OH2           -15.0682738784       16.2955562351      -31.6105528486  TIP3      4480            0.0000000000
     30789      4616  TIP3      H1            -14.4969459514       15.5248201058      -31.7947507557  TIP3      4480            0.0000000000
     30790      4616  TIP3      H2            -14.5801988010       17.0552606579      -31.9854218044  TIP3      4480            0.0000000000
     30791      4617  TIP3      OH2           -16.5971669887       18.9966181855      -29.1556887913  TIP3      4481            0.0000000000
     30792      4617  TIP3      H1            -17.1949496676       19.5795318207      -28.6350633938  TIP3      4481            0.0000000000
     30793      4617  TIP3      H2            -17.0975750003       18.8387932460      -29.9903594778  TIP3      4481            0.0000000000
     30794      4618  TIP3      OH2           -14.4951239489       13.7566430029      -40.7370063556  TIP3      4482            0.0000000000
     30795      4618  TIP3      H1            -14.9600013802       14.1681673655      -41.4984329985  TIP3      4482            0.0000000000
     30796      4618  TIP3      H2            -14.8885659460       14.2752635524      -40.0053734531  TIP3      4482            0.0000000000
     30797      4619  TIP3      OH2           -15.7670414836       10.5731445857      -41.5327144194  TIP3      4483            0.0000000000
     30798      4619  TIP3      H1            -15.5157379796       11.1865545165      -42.2438883831  TIP3      4483            0.0000000000
     30799      4619  TIP3      H2            -16.4660190881       10.0638393333      -41.9581307907  TIP3      4483            0.0000000000
     30800      4620  TIP3      OH2           -16.7893772210       12.3181035073      -35.7598137074  TIP3      4484            0.0000000000
     30801      4620  TIP3      H1            -16.7227474374       11.4028665392      -36.1057626311  TIP3      4484            0.0000000000
     30802      4620  TIP3      H2            -17.1299670999       12.1589327851      -34.8577568476  TIP3      4484            0.0000000000
     30803      4621  TIP3      OH2           -32.0035842900       14.0309329585      -31.1501739547  TIP3      4485            0.0000000000
     30804      4621  TIP3      H1            -32.0217810109       13.9193670307      -32.1333354145  TIP3      4485            0.0000000000
     30805      4621  TIP3      H2            -31.0255481417       13.9934658579      -31.0048293222  TIP3      4485            0.0000000000
     30806      4622  TIP3      OH2           -15.9177882943       13.8424619074      -25.9593609257  TIP3      4486            0.0000000000
     30807      4622  TIP3      H1            -15.2692943264       13.1517131067      -25.7092042129  TIP3      4486            0.0000000000
     30808      4622  TIP3      H2            -15.3066917071       14.5809826444      -26.1663691668  TIP3      4486            0.0000000000
     30809      4623  TIP3      OH2           -14.3452429339       11.7049227898      -25.6292949733  TIP3      4487            0.0000000000
     30810      4623  TIP3      H1            -15.2154299181       11.4441340858      -25.9869887288  TIP3      4487            0.0000000000
     30811      4623  TIP3      H2            -14.1040177075       10.8431229036      -25.2146240178  TIP3      4487            0.0000000000
     30812      4624  TIP3      OH2           -16.7512812186        9.8410919382      -36.7941520971  TIP3      4488            0.0000000000
     30813      4624  TIP3      H1            -17.1760403514        8.9721419296      -36.9204423778  TIP3      4488            0.0000000000
     30814      4624  TIP3      H2            -16.1762407515        9.8724047935      -37.5739842503  TIP3      4488            0.0000000000
     30815      4625  TIP3      OH2           -16.4418009266       10.8283616816      -32.4296413585  TIP3      4489            0.0000000000
     30816      4625  TIP3      H1            -15.6076962500       11.1234344214      -31.9752760403  TIP3      4489            0.0000000000
     30817      4625  TIP3      H2            -16.8879417511       10.4107004545      -31.6479812432  TIP3      4489            0.0000000000
     30818      4626  TIP3      OH2           -15.7864440374       11.2401960506      -28.4593874193  TIP3      4490            0.0000000000
     30819      4626  TIP3      H1            -16.5614770985       10.7279119576      -28.7723649147  TIP3      4490            0.0000000000
     30820      4626  TIP3      H2            -15.7660024490       11.9247919862      -29.1711862241  TIP3      4490            0.0000000000
     30821      4627  TIP3      OH2           -31.8366193612        9.5825355309      -26.5507722570  TIP3      4491            0.0000000000
     30822      4627  TIP3      H1            -31.7438444435        9.4366647038      -25.5995649716  TIP3      4491            0.0000000000
     30823      4627  TIP3      H2            -32.6612679573        9.1216945150      -26.7561434832  TIP3      4491            0.0000000000
     30824      4628  TIP3      OH2           -14.4261565162        5.0464002099      -23.5359889988  TIP3      4492            0.0000000000
     30825      4628  TIP3      H1            -13.7321170608        4.8130501173      -24.1743141464  TIP3      4492            0.0000000000
     30826      4628  TIP3      H2            -14.9407824782        5.6762951609      -24.0757380113  TIP3      4492            0.0000000000
     30827      4629  TIP3      OH2           -17.5391944909        6.9160539245      -37.0587036493  TIP3      4493            0.0000000000
     30828      4629  TIP3      H1            -16.7011626876        6.7196146494      -36.6086313448  TIP3      4493            0.0000000000
     30829      4629  TIP3      H2            -17.7864421595        6.0374157481      -37.3927309908  TIP3      4493            0.0000000000
     30830      4630  TIP3      OH2           -31.1671558303        7.8128935552      -31.9112666885  TIP3      4494            0.0000000000
     30831      4630  TIP3      H1            -30.7264698260        6.9453341566      -32.0022298533  TIP3      4494            0.0000000000
     30832      4630  TIP3      H2            -30.4210357684        8.4442521415      -31.9538598832  TIP3      4494            0.0000000000
     30833      4631  TIP3      OH2           -32.5541935381       10.7194260188      -31.0478525359  TIP3      4495            0.0000000000
     30834      4631  TIP3      H1            -31.8276407032       10.0761769893      -30.9729661840  TIP3      4495            0.0000000000
     30835      4631  TIP3      H2            -32.0254826232       11.5215570452      -31.2110819606  TIP3      4495            0.0000000000
     30836      4632  TIP3      OH2           -15.5417057394        6.7811264631      -25.3741319388  TIP3      4496            0.0000000000
     30837      4632  TIP3      H1            -16.2207250076        7.2406468534      -25.9341818142  TIP3      4496            0.0000000000
     30838      4632  TIP3      H2            -15.3262354327        6.0446724109      -25.9868569496  TIP3      4496            0.0000000000
     30839      4633  TIP3      OH2           -14.8894314998        7.1973506609      -40.6938362496  TIP3      4497            0.0000000000
     30840      4633  TIP3      H1            -15.3558932625        7.2196902761      -41.5390410466  TIP3      4497            0.0000000000
     30841      4633  TIP3      H2            -14.1523071577        7.7791769546      -40.9147249707  TIP3      4497            0.0000000000
     30842      4634  TIP3      OH2           -32.6426902409        7.0384685810      -37.6642834670  TIP3      4498            0.0000000000
     30843      4634  TIP3      H1            -33.2508304261        7.7709403046      -37.3848595174  TIP3      4498            0.0000000000
     30844      4634  TIP3      H2            -32.0520431089        7.4742561097      -38.3134610182  TIP3      4498            0.0000000000
     30845      4635  TIP3      OH2           -17.3454000790       22.0143291880      -35.3969150807  TIP3      4499            0.0000000000
     30846      4635  TIP3      H1            -17.6076871485       21.1824700461      -34.9638372853  TIP3      4499            0.0000000000
     30847      4635  TIP3      H2            -17.2592874872       22.6243393186      -34.6427624035  TIP3      4499            0.0000000000
     30848      4636  TIP3      OH2            33.5848044285        5.6255477099      -29.2682012333  TIP3      4500            0.0000000000
     30849      4636  TIP3      H1             32.7306451700        5.2357663897      -28.9873253244  TIP3      4500            0.0000000000
     30850      4636  TIP3      H2             33.3304486851        6.5383729192      -29.4648957017  TIP3      4500            0.0000000000
     30851      4637  TIP3      OH2           -30.3053649548       18.8680034107      -24.9592661243  TIP3      4501            0.0000000000
     30852      4637  TIP3      H1            -30.7956428645       18.1823647482      -25.4528381774  TIP3      4501            0.0000000000
     30853      4637  TIP3      H2            -29.8550146376       18.3330217212      -24.2941405078  TIP3      4501            0.0000000000
     30854      4638  TIP3      OH2           -27.5537594830       20.1734072960      -28.8189958480  TIP3      4502            0.0000000000
     30855      4638  TIP3      H1            -27.7425286487       21.1233127152      -28.9828471617  TIP3      4502            0.0000000000
     30856      4638  TIP3      H2            -26.5837180402       20.1741960934      -28.9734677483  TIP3      4502            0.0000000000
     30857      4639  TIP3      OH2           -23.4415352821       21.2737075398      -26.1764124983  TIP3      4503            0.0000000000
     30858      4639  TIP3      H1            -23.3485713476       21.1491807995      -25.2062203269  TIP3      4503            0.0000000000
     30859      4639  TIP3      H2            -22.5731869853       21.6808124864      -26.3566736855  TIP3      4503            0.0000000000
     30860      4640  TIP3      OH2           -21.1157706598       23.1157618868      -26.3105423041  TIP3      4504            0.0000000000
     30861      4640  TIP3      H1            -20.3891066373       22.7404269393      -26.8304411017  TIP3      4504            0.0000000000
     30862      4640  TIP3      H2            -20.6464954337       23.5459623165      -25.5791940103  TIP3      4504            0.0000000000
     30863      4641  TIP3      OH2           -15.7343199240        4.5538059320      -26.9677839434  TIP3      4505            0.0000000000
     30864      4641  TIP3      H1            -16.2745181702        4.8235720282      -27.7388803863  TIP3      4505            0.0000000000
     30865      4641  TIP3      H2            -15.3617384092        3.6955192248      -27.2527023107  TIP3      4505            0.0000000000
     30866      4642  TIP3      OH2           -30.2746642413       23.2105030171      -28.9352683660  TIP3      4506            0.0000000000
     30867      4642  TIP3      H1            -31.1507299555       23.6007885545      -29.1919339882  TIP3      4506            0.0000000000
     30868      4642  TIP3      H2            -30.1841331588       23.5647960606      -28.0306218852  TIP3      4506            0.0000000000
     30869      4643  TIP3      OH2           -27.5969740056       22.8572849140      -29.6891625535  TIP3      4507            0.0000000000
     30870      4643  TIP3      H1            -28.5451189941       23.0319650856      -29.4845090627  TIP3      4507            0.0000000000
     30871      4643  TIP3      H2            -27.5305607096       23.3188718951      -30.5534981340  TIP3      4507            0.0000000000
     30872      4644  TIP3      OH2           -23.0344554819       22.5750896337      -30.7349518025  TIP3      4508            0.0000000000
     30873      4644  TIP3      H1            -23.9401299792       22.8969185577      -30.5726776496  TIP3      4508            0.0000000000
     30874      4644  TIP3      H2            -22.5774040153       23.2146917674      -30.1525829175  TIP3      4508            0.0000000000
     30875      4645  TIP3      OH2           -21.0125634514       21.1617437768      -29.3336076403  TIP3      4509            0.0000000000
     30876      4645  TIP3      H1            -21.5758994913       21.6179977356      -29.9889633535  TIP3      4509            0.0000000000
     30877      4645  TIP3      H2            -20.1646307763       21.6142228133      -29.5256648174  TIP3      4509            0.0000000000
     30878      4646  TIP3      OH2           -18.6321635241       22.6399554033      -29.4932149725  TIP3      4510            0.0000000000
     30879      4646  TIP3      H1            -18.5758400796       23.5984677086      -29.5857388897  TIP3      4510            0.0000000000
     30880      4646  TIP3      H2            -18.1252356463       22.3441337464      -30.2883966431  TIP3      4510            0.0000000000
     30881      4647  TIP3      OH2           -30.5418881407       21.6751456037      -32.0387037945  TIP3      4511            0.0000000000
     30882      4647  TIP3      H1            -30.6675916568       20.9718439161      -31.3788116337  TIP3      4511            0.0000000000
     30883      4647  TIP3      H2            -29.7041795265       21.4069569003      -32.4818644168  TIP3      4511            0.0000000000
     30884      4648  TIP3      OH2           -28.3045222422       20.7840994881      -33.2255788060  TIP3      4512            0.0000000000
     30885      4648  TIP3      H1            -28.5089052729       19.8333424422      -33.1582646056  TIP3      4512            0.0000000000
     30886      4648  TIP3      H2            -27.4820547852       20.8023423370      -32.6872404654  TIP3      4512            0.0000000000
     30887      4649  TIP3      OH2           -26.0330696000       20.4926047659      -31.7659356063  TIP3      4513            0.0000000000
     30888      4649  TIP3      H1            -25.7228431816       19.5962507825      -32.0071176082  TIP3      4513            0.0000000000
     30889      4649  TIP3      H2            -25.8652965244       20.5057470748      -30.8128106450  TIP3      4513            0.0000000000
     30890      4650  TIP3      OH2           -22.6838461489        5.9102313493      -32.9378549912  TIP3      4514            0.0000000000
     30891      4650  TIP3      H1            -23.5662971182        5.5616907413      -32.6684596523  TIP3      4514            0.0000000000
     30892      4650  TIP3      H2            -22.5739214935        5.5006684050      -33.8087956947  TIP3      4514            0.0000000000
     30893      4651  TIP3      OH2           -17.2090124190        4.9037709021      -33.0499124542  TIP3      4515            0.0000000000
     30894      4651  TIP3      H1            -16.5508341139        5.4372179219      -33.5412260254  TIP3      4515            0.0000000000
     30895      4651  TIP3      H2            -18.0563254339        5.2716924353      -33.4049814630  TIP3      4515            0.0000000000
     30896      4652  TIP3      OH2           -15.5444239440        6.0590709591      -35.0507823282  TIP3      4516            0.0000000000
     30897      4652  TIP3      H1            -15.0582051928        5.2660002618      -35.3980329751  TIP3      4516            0.0000000000
     30898      4652  TIP3      H2            -14.9257794234        6.7617266158      -35.3425511058  TIP3      4516            0.0000000000
     30899      4653  TIP3      OH2           -29.8849492301        4.8110069507      -35.3168498676  TIP3      4517            0.0000000000
     30900      4653  TIP3      H1            -30.7818342107        4.6439582240      -35.6391977985  TIP3      4517            0.0000000000
     30901      4653  TIP3      H2            -29.4964088515        3.9041740301      -35.3444004015  TIP3      4517            0.0000000000
     30902      4654  TIP3      OH2           -31.1773671481        4.7404335352      -39.7218327432  TIP3      4518            0.0000000000
     30903      4654  TIP3      H1            -31.0204828180        5.6184177757      -40.1218635258  TIP3      4518            0.0000000000
     30904      4654  TIP3      H2            -31.9170281676        4.9090434215      -39.1051324582  TIP3      4518            0.0000000000
     30905      4655  TIP3      OH2           -25.5519335877        4.1843787551      -35.3650314941  TIP3      4519            0.0000000000
     30906      4655  TIP3      H1            -24.6869891739        4.4885915327      -35.7009530795  TIP3      4519            0.0000000000
     30907      4655  TIP3      H2            -25.8694825077        4.9614687250      -34.8940015329  TIP3      4519            0.0000000000
     30908      4656  TIP3      OH2           -19.6776705638        5.3660174705      -34.1530584562  TIP3      4520            0.0000000000
     30909      4656  TIP3      H1            -20.1384878254        5.6277012389      -34.9654576433  TIP3      4520            0.0000000000
     30910      4656  TIP3      H2            -20.1489312557        4.5379298281      -33.9029536763  TIP3      4520            0.0000000000
     30911      4657  TIP3      OH2           -18.5895022758        4.8675614928      -38.8895553698  TIP3      4521            0.0000000000
     30912      4657  TIP3      H1            -19.2125272660        5.6077624361      -38.9493502275  TIP3      4521            0.0000000000
     30913      4657  TIP3      H2            -19.1157831752        4.1834078156      -38.4073344279  TIP3      4521            0.0000000000
     30914      4658  TIP3      OH2           -31.4986239102       21.0554532503      -38.3612492390  TIP3      4522            0.0000000000
     30915      4658  TIP3      H1            -32.3467774928       20.9811267349      -38.8173939325  TIP3      4522            0.0000000000
     30916      4658  TIP3      H2            -31.2787835005       21.9861308937      -38.5722938600  TIP3      4522            0.0000000000
     30917      4659  TIP3      OH2           -29.7562458223        6.7328976414      -40.9104609911  TIP3      4523            0.0000000000
     30918      4659  TIP3      H1            -29.4324273351        7.2441489392      -41.6716621118  TIP3      4523            0.0000000000
     30919      4659  TIP3      H2            -30.1829829914        7.4019088048      -40.3263631694  TIP3      4523            0.0000000000
     30920      4660  TIP3      OH2           -23.9678833544        7.4868644425      -38.5618817789  TIP3      4524            0.0000000000
     30921      4660  TIP3      H1            -23.0281947620        7.3464139972      -38.2902805578  TIP3      4524            0.0000000000
     30922      4660  TIP3      H2            -24.1292108451        8.2629779168      -37.9904843683  TIP3      4524            0.0000000000
     30923      4661  TIP3      OH2           -22.2476025415       22.7297665089      -40.5889661259  TIP3      4525            0.0000000000
     30924      4661  TIP3      H1            -21.2996617358       22.5643058419      -40.7840069387  TIP3      4525            0.0000000000
     30925      4661  TIP3      H2            -22.6464844125       21.9636628562      -41.0567653622  TIP3      4525            0.0000000000
     30926      4662  TIP3      OH2           -15.3928419929       20.9686239851      -37.1659714215  TIP3      4526            0.0000000000
     30927      4662  TIP3      H1            -15.9671599555       20.5349058910      -37.8366795551  TIP3      4526            0.0000000000
     30928      4662  TIP3      H2            -14.5444618391       20.5195585719      -37.3061567373  TIP3      4526            0.0000000000
     30929      4663  TIP3      OH2           -30.3336234600        5.7618245204      -26.0209272455  TIP3      4527            0.0000000000
     30930      4663  TIP3      H1            -30.9145101761        5.0003273027      -25.8974831750  TIP3      4527            0.0000000000
     30931      4663  TIP3      H2            -29.5189837432        5.4857778435      -25.5666940042  TIP3      4527            0.0000000000
     30932      4664  TIP3      OH2           -27.8289295301        4.9813129782      -23.3613653300  TIP3      4528            0.0000000000
     30933      4664  TIP3      H1            -27.2630956942        5.2460881112      -24.1021149604  TIP3      4528            0.0000000000
     30934      4664  TIP3      H2            -27.5280014448        4.0618961942      -23.2266954514  TIP3      4528            0.0000000000
     30935      4665  TIP3      OH2           -29.0863893309       22.0371669596      -41.7740845040  TIP3      4529            0.0000000000
     30936      4665  TIP3      H1            -29.8767526393       22.5186966439      -42.0912403240  TIP3      4529            0.0000000000
     30937      4665  TIP3      H2            -29.4073931486       21.5948727807      -40.9763577017  TIP3      4529            0.0000000000
     30938      4666  TIP3      OH2           -20.2949122925        4.2167901640      -24.4708387558  TIP3      4530            0.0000000000
     30939      4666  TIP3      H1            -20.3929341546        3.3876985636      -23.9754847371  TIP3      4530            0.0000000000
     30940      4666  TIP3      H2            -19.3203737643        4.2197847300      -24.5858177274  TIP3      4530            0.0000000000
     30941      4667  TIP3      OH2           -16.8170723413       20.6116974716      -25.3688256940  TIP3      4531            0.0000000000
     30942      4667  TIP3      H1            -17.2017876136       20.4673620576      -26.2667243275  TIP3      4531            0.0000000000
     30943      4667  TIP3      H2            -17.0664412661       21.5515489025      -25.1927897728  TIP3      4531            0.0000000000
     30944      4668  TIP3      OH2            -1.7975190286       14.6668898779      -35.5874075037  TIP3      4532            0.0000000000
     30945      4668  TIP3      H1             -2.1385745839       15.4998461347      -35.9974551245  TIP3      4532            0.0000000000
     30946      4668  TIP3      H2             -2.5589349323       14.0764892606      -35.6707209919  TIP3      4532            0.0000000000
     30947      4669  TIP3      OH2            -3.8228495290       13.0653453504      -32.1603403729  TIP3      4533            0.0000000000
     30948      4669  TIP3      H1             -3.4727432538       12.7470331765      -31.2963127233  TIP3      4533            0.0000000000
     30949      4669  TIP3      H2             -4.1522136277       12.2432257432      -32.5518021639  TIP3      4533            0.0000000000
     30950      4670  TIP3      OH2           -10.8796109971       13.4116422413      -30.2196759428  TIP3      4534            0.0000000000
     30951      4670  TIP3      H1            -10.9362992187       12.5521994472      -29.7865678738  TIP3      4534            0.0000000000
     30952      4670  TIP3      H2             -9.9258412260       13.4405887524      -30.4329927013  TIP3      4534            0.0000000000
     30953      4671  TIP3      OH2             0.3020948749       16.0862625485      -33.4305730392  TIP3      4535            0.0000000000
     30954      4671  TIP3      H1             -0.3795365040       15.6870388800      -33.9971844961  TIP3      4535            0.0000000000
     30955      4671  TIP3      H2             -0.0143023511       16.9966740268      -33.2983013220  TIP3      4535            0.0000000000
     30956      4672  TIP3      OH2            -9.9168884573       17.7419683340      -32.1280841060  TIP3      4536            0.0000000000
     30957      4672  TIP3      H1            -10.1828678833       16.9109854054      -32.5576235889  TIP3      4536            0.0000000000
     30958      4672  TIP3      H2             -8.9512805543       17.7463810151      -32.3133469574  TIP3      4536            0.0000000000
     30959      4673  TIP3      OH2           -13.2865961511       10.9796818771      -36.4655033949  TIP3      4537            0.0000000000
     30960      4673  TIP3      H1            -13.6566982351       11.8749030563      -36.4247738795  TIP3      4537            0.0000000000
     30961      4673  TIP3      H2            -13.8376460626       10.5954337692      -37.1638553237  TIP3      4537            0.0000000000
     30962      4674  TIP3      OH2           -13.3374937422       13.1764548822      -33.9880075648  TIP3      4538            0.0000000000
     30963      4674  TIP3      H1            -13.0585834386       12.2696588147      -33.7535011512  TIP3      4538            0.0000000000
     30964      4674  TIP3      H2            -12.5471122244       13.5080676398      -34.4376965025  TIP3      4538            0.0000000000
     30965      4675  TIP3      OH2            -2.3814017447       21.8354166016      -33.7293034837  TIP3      4539            0.0000000000
     30966      4675  TIP3      H1             -1.8618251805       21.2755384367      -34.3557538449  TIP3      4539            0.0000000000
     30967      4675  TIP3      H2             -2.7548586258       21.1350211748      -33.1810724445  TIP3      4539            0.0000000000
     30968      4676  TIP3      OH2            -5.2499133255       16.5380251963      -31.1922333750  TIP3      4540            0.0000000000
     30969      4676  TIP3      H1             -4.8239500307       16.0625579769      -31.9194885287  TIP3      4540            0.0000000000
     30970      4676  TIP3      H2             -4.4586898646       16.7339881102      -30.6411077148  TIP3      4540            0.0000000000
     30971      4677  TIP3      OH2             3.6169294832        7.6861632313      -31.2995505023  TIP3      4541            0.0000000000
     30972      4677  TIP3      H1              3.8050414607        8.1314034280      -30.4450787382  TIP3      4541            0.0000000000
     30973      4677  TIP3      H2              4.4137516043        7.9226411074      -31.8073117093  TIP3      4541            0.0000000000
     30974      4678  TIP3      OH2            -1.3201068142       10.1856564277      -31.1699042667  TIP3      4542            0.0000000000
     30975      4678  TIP3      H1             -1.1671617442        9.2188427055      -31.2594647259  TIP3      4542            0.0000000000
     30976      4678  TIP3      H2             -1.4969507143       10.4036067100      -32.1105473070  TIP3      4542            0.0000000000
     30977      4679  TIP3      OH2            -8.2247915027        8.1562874413      -34.4795781386  TIP3      4543            0.0000000000
     30978      4679  TIP3      H1             -8.3442325898        9.0475272905      -34.8622269928  TIP3      4543            0.0000000000
     30979      4679  TIP3      H2             -8.9358108603        7.6659040650      -34.9390758230  TIP3      4543            0.0000000000
     30980      4680  TIP3      OH2            -1.0544422123        8.7284271276      -35.2464030675  TIP3      4544            0.0000000000
     30981      4680  TIP3      H1             -0.4340406127        8.1640706354      -34.7271333723  TIP3      4544            0.0000000000
     30982      4680  TIP3      H2             -0.4080224962        9.2153801960      -35.7972173985  TIP3      4544            0.0000000000
     30983      4681  TIP3      OH2           -12.0321936073       10.6333710982      -33.3994996149  TIP3      4545            0.0000000000
     30984      4681  TIP3      H1            -11.3500944029       10.1918432269      -32.8550152104  TIP3      4545            0.0000000000
     30985      4681  TIP3      H2            -11.8094321837       10.3003148883      -34.2960635594  TIP3      4545            0.0000000000
     30986      4682  TIP3      OH2            -7.5577804612       12.3728555084      -33.7592502619  TIP3      4546            0.0000000000
     30987      4682  TIP3      H1             -6.6166527512       12.1413431194      -33.7817673763  TIP3      4546            0.0000000000
     30988      4682  TIP3      H2             -7.9410254826       11.6215584846      -34.2764033117  TIP3      4546            0.0000000000
     30989      4683  TIP3      OH2             3.8797563900        9.0902002950      -28.7232980794  TIP3      4547            0.0000000000
     30990      4683  TIP3      H1              3.3986552193        9.8481371546      -29.1410440434  TIP3      4547            0.0000000000
     30991      4683  TIP3      H2              4.3669582258        9.5158530166      -28.0104656027  TIP3      4547            0.0000000000
     30992      4684  TIP3      OH2            -9.4849859075        7.5651388611      -30.1007724336  TIP3      4548            0.0000000000
     30993      4684  TIP3      H1             -9.9498270586        8.0856487594      -30.7874553372  TIP3      4548            0.0000000000
     30994      4684  TIP3      H2            -10.1888886722        7.5307076303      -29.4195432448  TIP3      4548            0.0000000000
     30995      4685  TIP3      OH2            -2.8414724057       16.8932438511      -36.6764905351  TIP3      4549            0.0000000000
     30996      4685  TIP3      H1             -3.2031107068       16.8560149829      -37.5781352906  TIP3      4549            0.0000000000
     30997      4685  TIP3      H2             -3.2496212061       17.7127154098      -36.3118816818  TIP3      4549            0.0000000000
     30998      4686  TIP3      OH2            -7.2289703074       15.0302805101      -30.0429105222  TIP3      4550            0.0000000000
     30999      4686  TIP3      H1             -7.8036940496       15.7101904405      -29.6151667796  TIP3      4550            0.0000000000
     31000      4686  TIP3      H2             -6.5577236170       15.6280527065      -30.4478923936  TIP3      4550            0.0000000000
     31001      4687  TIP3      OH2             1.2702885940        7.8127637097      -34.1161439228  TIP3      4551            0.0000000000
     31002      4687  TIP3      H1              1.4567556465        7.3833815985      -33.2701776120  TIP3      4551            0.0000000000
     31003      4687  TIP3      H2              1.8794850321        8.5716419483      -34.0868973726  TIP3      4551            0.0000000000
     31004      4688  TIP3      OH2            -9.9878375060        9.2278460379      -32.2317200133  TIP3      4552            0.0000000000
     31005      4688  TIP3      H1             -9.5152826280        9.9290955877      -31.7202929728  TIP3      4552            0.0000000000
     31006      4688  TIP3      H2             -9.3283554242        8.9756193066      -32.9031990022  TIP3      4552            0.0000000000
     31007      4689  TIP3      OH2            -8.7425290230       17.0893053786      -29.2061659311  TIP3      4553            0.0000000000
     31008      4689  TIP3      H1             -9.0635086835       17.4978905537      -30.0262279977  TIP3      4553            0.0000000000
     31009      4689  TIP3      H2             -9.5748193004       17.0309209238      -28.6765315234  TIP3      4553            0.0000000000
     31010      4690  TIP3      OH2           -12.9953472748       16.6591209299      -38.3755283684  TIP3      4554            0.0000000000
     31011      4690  TIP3      H1            -12.9425280769       16.9965716188      -39.3036206825  TIP3      4554            0.0000000000
     31012      4690  TIP3      H2            -12.9618481198       17.4657949618      -37.8429200306  TIP3      4554            0.0000000000
     31013      4691  TIP3      OH2             0.3041792245       18.7342390731      -32.5397956569  TIP3      4555            0.0000000000
     31014      4691  TIP3      H1             -0.5160474685       18.5812708114      -32.0057837874  TIP3      4555            0.0000000000
     31015      4691  TIP3      H2              0.2662573756       19.6984871543      -32.5864352691  TIP3      4555            0.0000000000
     31016      4692  TIP3      OH2             1.2590684361        7.6379839851      -29.8923148679  TIP3      4556            0.0000000000
     31017      4692  TIP3      H1              0.4576111822        8.0130915575      -30.2871588299  TIP3      4556            0.0000000000
     31018      4692  TIP3      H2              1.9211828625        7.7815982189      -30.5934235314  TIP3      4556            0.0000000000
     31019      4693  TIP3      OH2            -6.1158962164        4.6500483071      -32.2830989588  TIP3      4557            0.0000000000
     31020      4693  TIP3      H1             -6.2779684619        4.0240828677      -33.0055691822  TIP3      4557            0.0000000000
     31021      4693  TIP3      H2             -7.0205318449        5.0504267454      -32.2307015676  TIP3      4557            0.0000000000
     31022      4694  TIP3      OH2            -0.8619853356       20.3077120354      -35.2662773513  TIP3      4558            0.0000000000
     31023      4694  TIP3      H1             -0.5790116760       19.4703607907      -35.6872621311  TIP3      4558            0.0000000000
     31024      4694  TIP3      H2              0.0029895260       20.7760434945      -35.1894338606  TIP3      4558            0.0000000000
     31025      4695  TIP3      OH2             0.4350887283       18.2153276169      -36.3718142031  TIP3      4559            0.0000000000
     31026      4695  TIP3      H1              0.4417176996       17.6353089322      -37.1601331345  TIP3      4559            0.0000000000
     31027      4695  TIP3      H2              0.3112335654       17.5737745993      -35.6597381665  TIP3      4559            0.0000000000
     31028      4696  TIP3      OH2             2.0865886138       16.6451398676      -27.6010222279  TIP3      4560            0.0000000000
     31029      4696  TIP3      H1              2.3353879783       16.0041516762      -28.3001705064  TIP3      4560            0.0000000000
     31030      4696  TIP3      H2              2.2441442336       17.4740749011      -28.0838739492  TIP3      4560            0.0000000000
     31031      4697  TIP3      OH2            -3.5024958607       13.4269604977      -38.0603240950  TIP3      4561            0.0000000000
     31032      4697  TIP3      H1             -4.0981724103       14.2094149098      -38.0724625941  TIP3      4561            0.0000000000
     31033      4697  TIP3      H2             -2.7066008352       13.7956184204      -38.4850492569  TIP3      4561            0.0000000000
     31034      4698  TIP3      OH2            -3.5579629892       12.8366248865      -41.0392857097  TIP3      4562            0.0000000000
     31035      4698  TIP3      H1             -2.8310853269       13.0788865650      -40.4487369305  TIP3      4562            0.0000000000
     31036      4698  TIP3      H2             -3.5229170782       11.8700017100      -41.0302725896  TIP3      4562            0.0000000000
     31037      4699  TIP3      OH2             4.3369235878       13.3215786655      -29.4295167843  TIP3      4563            0.0000000000
     31038      4699  TIP3      H1              3.6035756012       13.9058157018      -29.6972690904  TIP3      4563            0.0000000000
     31039      4699  TIP3      H2              4.9144106005       13.3836420749      -30.2256368419  TIP3      4563            0.0000000000
     31040      4700  TIP3      OH2             0.4805688276       14.2930875864      -36.8818351961  TIP3      4564            0.0000000000
     31041      4700  TIP3      H1             -0.2997495143       14.3753540225      -36.2789943456  TIP3      4564            0.0000000000
     31042      4700  TIP3      H2              1.0866215977       13.7387095164      -36.3424218083  TIP3      4564            0.0000000000
     31043      4701  TIP3      OH2             0.2275309398       12.2411147954      -27.8123323474  TIP3      4565            0.0000000000
     31044      4701  TIP3      H1             -0.1001892958       12.9949823550      -27.2800228961  TIP3      4565            0.0000000000
     31045      4701  TIP3      H2             -0.2823507394       12.3499057621      -28.6421807867  TIP3      4565            0.0000000000
     31046      4702  TIP3      OH2            -8.7592475408       14.1319946928      -35.4226571011  TIP3      4566            0.0000000000
     31047      4702  TIP3      H1             -8.7552949748       13.7239050959      -36.3111964216  TIP3      4566            0.0000000000
     31048      4702  TIP3      H2             -8.2004524984       13.5263839122      -34.9051916490  TIP3      4566            0.0000000000
     31049      4703  TIP3      OH2            -7.2237811229       17.6692908664      -32.6244692057  TIP3      4567            0.0000000000
     31050      4703  TIP3      H1             -7.0965977557       17.3769053581      -33.5393444952  TIP3      4567            0.0000000000
     31051      4703  TIP3      H2             -6.4576521878       17.2691536267      -32.1467745490  TIP3      4567            0.0000000000
     31052      4704  TIP3      OH2            -8.4931332695       13.1106510813      -31.3828903600  TIP3      4568            0.0000000000
     31053      4704  TIP3      H1             -8.1233521767       13.0055015951      -32.2909644934  TIP3      4568            0.0000000000
     31054      4704  TIP3      H2             -7.8861585168       13.7922743868      -31.0073491559  TIP3      4568            0.0000000000
     31055      4705  TIP3      OH2            -1.6047144543       18.6124364535      -30.7427247022  TIP3      4569            0.0000000000
     31056      4705  TIP3      H1             -1.8116201763       19.2781134656      -30.0641543605  TIP3      4569            0.0000000000
     31057      4705  TIP3      H2             -2.0790014800       17.8213147077      -30.3997475560  TIP3      4569            0.0000000000
     31058      4706  TIP3      OH2            -7.3071726831       17.6269514025      -26.9328221856  TIP3      4570            0.0000000000
     31059      4706  TIP3      H1             -7.9617979113       18.1452284763      -26.4071628004  TIP3      4570            0.0000000000
     31060      4706  TIP3      H2             -7.8183847280       17.4702941487      -27.7576590251  TIP3      4570            0.0000000000
     31061      4707  TIP3      OH2            -0.8672616506       13.3908768764      -39.0178136206  TIP3      4571            0.0000000000
     31062      4707  TIP3      H1             -0.2781479624       13.7454066415      -38.3140411212  TIP3      4571            0.0000000000
     31063      4707  TIP3      H2             -0.4355248210       13.7746336983      -39.8121546402  TIP3      4571            0.0000000000
     31064      4708  TIP3      OH2           -10.0997568694       12.9778436116      -27.5881830487  TIP3      4572            0.0000000000
     31065      4708  TIP3      H1            -10.1313015909       13.1439126927      -26.6232915033  TIP3      4572            0.0000000000
     31066      4708  TIP3      H2            -11.0203808158       13.2187846697      -27.7715490276  TIP3      4572            0.0000000000
     31067      4709  TIP3      OH2            -4.1095589705       19.2510551573      -35.9826049811  TIP3      4573            0.0000000000
     31068      4709  TIP3      H1             -4.1351030755       20.1064867304      -35.5511737858  TIP3      4573            0.0000000000
     31069      4709  TIP3      H2             -4.4404301055       19.4367258944      -36.8789038179  TIP3      4573            0.0000000000
     31070      4710  TIP3      OH2            -8.8744402383       19.3459267027      -25.7537642896  TIP3      4574            0.0000000000
     31071      4710  TIP3      H1             -9.0948515957       19.7504372437      -26.6254967172  TIP3      4574            0.0000000000
     31072      4710  TIP3      H2             -9.7140693814       19.4189039917      -25.2652419977  TIP3      4574            0.0000000000
     31073      4711  TIP3      OH2             2.8261203773        4.6449922601      -39.0303209927  TIP3      4575            0.0000000000
     31074      4711  TIP3      H1              1.8393281018        4.6845863985      -39.0528592728  TIP3      4575            0.0000000000
     31075      4711  TIP3      H2              3.0328201944        5.3267314390      -39.7010920089  TIP3      4575            0.0000000000
     31076      4712  TIP3      OH2            -9.4832576443       13.1471904541      -38.0255917638  TIP3      4576            0.0000000000
     31077      4712  TIP3      H1            -10.0819898635       13.8525135220      -38.3713683511  TIP3      4576            0.0000000000
     31078      4712  TIP3      H2            -10.0667109741       12.3804491784      -37.9889655525  TIP3      4576            0.0000000000
     31079      4713  TIP3      OH2             3.9465672457       19.1556105058      -41.1460722948  TIP3      4577            0.0000000000
     31080      4713  TIP3      H1              3.7943361610       19.3355741286      -42.0928684893  TIP3      4577            0.0000000000
     31081      4713  TIP3      H2              4.7586140755       18.6055915502      -41.2069501004  TIP3      4577            0.0000000000
     31082      4714  TIP3      OH2           -13.1916823350       16.1816512144      -28.5082312705  TIP3      4578            0.0000000000
     31083      4714  TIP3      H1            -13.7709742522       16.4203507121      -29.2461420526  TIP3      4578            0.0000000000
     31084      4714  TIP3      H2            -12.8701852441       15.3356623317      -28.8683990199  TIP3      4578            0.0000000000
     31085      4715  TIP3      OH2           -13.3959041920       18.5370094244      -32.0577255233  TIP3      4579            0.0000000000
     31086      4715  TIP3      H1            -12.5183454329       18.1550972251      -32.1807261347  TIP3      4579            0.0000000000
     31087      4715  TIP3      H2            -13.2198157305       19.1241969439      -31.2992867466  TIP3      4579            0.0000000000
     31088      4716  TIP3      OH2             4.3126902118       19.4205469577      -26.2263082301  TIP3      4580            0.0000000000
     31089      4716  TIP3      H1              4.2817542047       18.5066081415      -25.9128239174  TIP3      4580            0.0000000000
     31090      4716  TIP3      H2              3.5169946882       19.7676530452      -25.7542835651  TIP3      4580            0.0000000000
     31091      4717  TIP3      OH2            -5.0068335174       19.0607018378      -27.2209069365  TIP3      4581            0.0000000000
     31092      4717  TIP3      H1             -4.9478189916       19.9524318977      -26.8204056979  TIP3      4581            0.0000000000
     31093      4717  TIP3      H2             -5.9445523945       18.7912427171      -27.0791697566  TIP3      4581            0.0000000000
     31094      4718  TIP3      OH2            -4.4212812568       22.5443106489      -37.9277281017  TIP3      4582            0.0000000000
     31095      4718  TIP3      H1             -4.3248007112       22.8015121838      -38.8618125193  TIP3      4582            0.0000000000
     31096      4718  TIP3      H2             -4.2922126497       23.3979966211      -37.4497381354  TIP3      4582            0.0000000000
     31097      4719  TIP3      OH2           -10.2701393244       21.3238034543      -35.5532218167  TIP3      4583            0.0000000000
     31098      4719  TIP3      H1             -9.9329903865       21.2448083192      -34.6279207370  TIP3      4583            0.0000000000
     31099      4719  TIP3      H2            -10.9488466799       20.6032682985      -35.5380546356  TIP3      4583            0.0000000000
     31100      4720  TIP3      OH2            -1.4389785522       21.3564093008      -41.1447335605  TIP3      4584            0.0000000000
     31101      4720  TIP3      H1             -0.7985405916       20.7111359669      -41.4967584585  TIP3      4584            0.0000000000
     31102      4720  TIP3      H2             -1.2845217024       21.3332160568      -40.1844548084  TIP3      4584            0.0000000000
     31103      4721  TIP3      OH2            -1.3761666341       22.0371473450      -38.0890165819  TIP3      4585            0.0000000000
     31104      4721  TIP3      H1             -2.3270959435       22.2200208908      -37.9507097109  TIP3      4585            0.0000000000
     31105      4721  TIP3      H2             -1.2686384432       21.2554355587      -37.5172455503  TIP3      4585            0.0000000000
     31106      4722  TIP3      OH2             2.0152311757       10.8065728091      -26.2211479159  TIP3      4586            0.0000000000
     31107      4722  TIP3      H1              1.3339955341       11.3680634306      -26.6395672343  TIP3      4586            0.0000000000
     31108      4722  TIP3      H2              1.7220248340        9.9033007144      -26.4568615390  TIP3      4586            0.0000000000
     31109      4723  TIP3      OH2           -10.8896624520       17.3121395714      -27.6396369297  TIP3      4587            0.0000000000
     31110      4723  TIP3      H1            -10.6251818938       16.8767807803      -26.8008588059  TIP3      4587            0.0000000000
     31111      4723  TIP3      H2            -11.7842261428       16.9240483063      -27.7852981710  TIP3      4587            0.0000000000
     31112      4724  TIP3      OH2            -8.4842952294        5.8591266670      -31.9027654873  TIP3      4588            0.0000000000
     31113      4724  TIP3      H1             -9.4059264441        5.9386812805      -32.1992946028  TIP3      4588            0.0000000000
     31114      4724  TIP3      H2             -8.5098134336        6.4295824521      -31.1137498922  TIP3      4588            0.0000000000
     31115      4725  TIP3      OH2            -3.9315975601        5.3871776019      -28.6392604390  TIP3      4589            0.0000000000
     31116      4725  TIP3      H1             -3.5235821116        5.0662800087      -27.8040967575  TIP3      4589            0.0000000000
     31117      4725  TIP3      H2             -4.8913226411        5.2193016855      -28.5136017829  TIP3      4589            0.0000000000
     31118      4726  TIP3      OH2            -0.9289242954        9.4207850445      -27.4799825754  TIP3      4590            0.0000000000
     31119      4726  TIP3      H1             -1.4651877499        9.1879788177      -26.6839376452  TIP3      4590            0.0000000000
     31120      4726  TIP3      H2             -0.7105523453       10.3564153484      -27.3099108785  TIP3      4590            0.0000000000
     31121      4727  TIP3      OH2             0.4694761735       14.5399194416      -41.1167251503  TIP3      4591            0.0000000000
     31122      4727  TIP3      H1              0.3670696022       14.7379208190      -42.0581640907  TIP3      4591            0.0000000000
     31123      4727  TIP3      H2              1.2950162826       15.0000842532      -40.8899388266  TIP3      4591            0.0000000000
     31124      4728  TIP3      OH2            -3.9310588654        8.2803589078      -41.1184180705  TIP3      4592            0.0000000000
     31125      4728  TIP3      H1             -4.2384383299        8.0663503424      -40.2090685245  TIP3      4592            0.0000000000
     31126      4728  TIP3      H2             -3.5904126738        7.4283385081      -41.3960767330  TIP3      4592            0.0000000000
     31127      4729  TIP3      OH2            -8.5387473387       10.6055667660      -30.3954265591  TIP3      4593            0.0000000000
     31128      4729  TIP3      H1             -9.2729247551       10.6405566964      -29.7552351619  TIP3      4593            0.0000000000
     31129      4729  TIP3      H2             -8.4632472774       11.5590488495      -30.6333331958  TIP3      4593            0.0000000000
     31130      4730  TIP3      OH2            -8.2035262402       10.5800518794      -35.5949148554  TIP3      4594            0.0000000000
     31131      4730  TIP3      H1             -9.1658434627       10.6683053814      -35.7547104525  TIP3      4594            0.0000000000
     31132      4730  TIP3      H2             -7.8829002384       10.3073412809      -36.4780834608  TIP3      4594            0.0000000000
     31133      4731  TIP3      OH2            -2.3059537257       11.6340256529      -36.4919137809  TIP3      4595            0.0000000000
     31134      4731  TIP3      H1             -2.7555895935       12.2798935067      -37.0940367758  TIP3      4595            0.0000000000
     31135      4731  TIP3      H2             -1.7903051434       11.1277152062      -37.1483764391  TIP3      4595            0.0000000000
     31136      4732  TIP3      OH2            -3.8300017848       12.1161745095      -25.8841390950  TIP3      4596            0.0000000000
     31137      4732  TIP3      H1             -3.6515552569       11.8046384700      -24.9776707014  TIP3      4596            0.0000000000
     31138      4732  TIP3      H2             -3.3733951696       12.9629950428      -25.7949633157  TIP3      4596            0.0000000000
     31139      4733  TIP3      OH2            -1.7388471819       10.9085118253      -33.7995655486  TIP3      4597            0.0000000000
     31140      4733  TIP3      H1             -1.9410461560       11.6414311181      -34.4141037325  TIP3      4597            0.0000000000
     31141      4733  TIP3      H2             -1.5319095299       10.1942846953      -34.4442605429  TIP3      4597            0.0000000000
     31142      4734  TIP3      OH2           -11.0265345774       10.5510634871      -29.1579278626  TIP3      4598            0.0000000000
     31143      4734  TIP3      H1            -10.9278146535       10.9440988815      -28.2762344913  TIP3      4598            0.0000000000
     31144      4734  TIP3      H2            -11.2861092817        9.6378432314      -28.9362558368  TIP3      4598            0.0000000000
     31145      4735  TIP3      OH2            -8.1657397644        8.6648802096      -41.3851082392  TIP3      4599            0.0000000000
     31146      4735  TIP3      H1             -8.0122144072        8.0615319636      -40.6260132741  TIP3      4599            0.0000000000
     31147      4735  TIP3      H2             -7.6266649509        9.4418109703      -41.1976973432  TIP3      4599            0.0000000000
     31148      4736  TIP3      OH2           -13.4991946007        7.8895983746      -34.7481766784  TIP3      4600            0.0000000000
     31149      4736  TIP3      H1            -12.6720863315        7.4216161384      -34.5804563439  TIP3      4600            0.0000000000
     31150      4736  TIP3      H2            -13.4106695093        8.1552030758      -35.6759709673  TIP3      4600            0.0000000000
     31151      4737  TIP3      OH2           -12.3598208655        8.5585332451      -39.4796690273  TIP3      4601            0.0000000000
     31152      4737  TIP3      H1            -11.9639309586        9.0451187009      -40.2295811280  TIP3      4601            0.0000000000
     31153      4737  TIP3      H2            -13.0342261611        9.2166244731      -39.2119548005  TIP3      4601            0.0000000000
     31154      4738  TIP3      OH2            -2.7501010950       12.0835545986      -29.9803383287  TIP3      4602            0.0000000000
     31155      4738  TIP3      H1             -2.1363979769       11.3641900760      -30.2745115685  TIP3      4602            0.0000000000
     31156      4738  TIP3      H2             -3.2295842767       11.6742854559      -29.2242764694  TIP3      4602            0.0000000000
     31157      4739  TIP3      OH2            -5.2922216894        7.7787843424      -34.5754413231  TIP3      4603            0.0000000000
     31158      4739  TIP3      H1             -6.2554011209        7.9623685964      -34.5593417577  TIP3      4603            0.0000000000
     31159      4739  TIP3      H2             -5.0953212688        7.4766209722      -33.6663787752  TIP3      4603            0.0000000000
     31160      4740  TIP3      OH2           -10.8367498577        9.7031825537      -35.8206661914  TIP3      4604            0.0000000000
     31161      4740  TIP3      H1            -11.6053132295       10.0468483347      -36.3171340972  TIP3      4604            0.0000000000
     31162      4740  TIP3      H2            -10.6699462995        8.8107253430      -36.1881389343  TIP3      4604            0.0000000000
     31163      4741  TIP3      OH2            -7.6596625002        9.9159184803      -38.1801965480  TIP3      4605            0.0000000000
     31164      4741  TIP3      H1             -6.7652932463       10.2451015008      -37.9581981768  TIP3      4605            0.0000000000
     31165      4741  TIP3      H2             -8.0385532864       10.6312394791      -38.7233572677  TIP3      4605            0.0000000000
     31166      4742  TIP3      OH2            -1.0362457222        7.6016343013      -31.6443086657  TIP3      4606            0.0000000000
     31167      4742  TIP3      H1             -1.5203401475        7.0889417188      -30.9686063057  TIP3      4606            0.0000000000
     31168      4742  TIP3      H2             -1.1130818653        7.0601793195      -32.4428982310  TIP3      4606            0.0000000000
     31169      4743  TIP3      OH2            -8.8813053057       11.6478170064      -40.8903395510  TIP3      4607            0.0000000000
     31170      4743  TIP3      H1             -9.1224926608       11.2021332688      -41.7287791782  TIP3      4607            0.0000000000
     31171      4743  TIP3      H2             -7.9174246043       11.7592306556      -41.0284438055  TIP3      4607            0.0000000000
     31172      4744  TIP3      OH2             1.7244381711       23.3739534024      -24.9714501872  TIP3      4608            0.0000000000
     31173      4744  TIP3      H1              2.1502968767       23.5949743998      -25.8342164520  TIP3      4608            0.0000000000
     31174      4744  TIP3      H2              2.3790947215       23.7807362512      -24.3795383530  TIP3      4608            0.0000000000
     31175      4745  TIP3      OH2           -10.5855843847       16.4009509320      -24.9487663462  TIP3      4609            0.0000000000
     31176      4745  TIP3      H1             -9.7674144155       16.2637414466      -24.4214302609  TIP3      4609            0.0000000000
     31177      4745  TIP3      H2            -11.0546438711       15.5661196841      -24.7682311981  TIP3      4609            0.0000000000
     31178      4746  TIP3      OH2            -4.6824437335       10.4322032201      -32.9964159067  TIP3      4610            0.0000000000
     31179      4746  TIP3      H1             -3.7533095303       10.4826721893      -33.2990958623  TIP3      4610            0.0000000000
     31180      4746  TIP3      H2             -4.8989286618        9.5092582246      -33.1820084580  TIP3      4610            0.0000000000
     31181      4747  TIP3      OH2           -10.1484224937        6.9572611188      -36.0342746898  TIP3      4611            0.0000000000
     31182      4747  TIP3      H1            -10.5534524633        6.1499182850      -35.6446866149  TIP3      4611            0.0000000000
     31183      4747  TIP3      H2             -9.8565933101        6.6468695929      -36.9037607630  TIP3      4611            0.0000000000
     31184      4748  TIP3      OH2            -6.3836738751        9.1122380477      -30.5397876481  TIP3      4612            0.0000000000
     31185      4748  TIP3      H1             -7.2280963247        9.6302172428      -30.5532024688  TIP3      4612            0.0000000000
     31186      4748  TIP3      H2             -5.7849507504        9.7973977709      -30.8842067195  TIP3      4612            0.0000000000
     31187      4749  TIP3      OH2            -5.2631258201       15.5446401813      -38.1677481446  TIP3      4613            0.0000000000
     31188      4749  TIP3      H1             -6.0307837085       15.0561276131      -38.5455220418  TIP3      4613            0.0000000000
     31189      4749  TIP3      H2             -5.7087134659       16.0028394814      -37.4116299348  TIP3      4613            0.0000000000
     31190      4750  TIP3      OH2             2.3121605884       15.3020111838      -30.1029598130  TIP3      4614            0.0000000000
     31191      4750  TIP3      H1              2.8027016415       15.5385894708      -30.9141166998  TIP3      4614            0.0000000000
     31192      4750  TIP3      H2              1.5301451066       14.8285848920      -30.4611244709  TIP3      4614            0.0000000000
     31193      4751  TIP3      OH2            -1.4800076680        8.7533742265      -39.7256026463  TIP3      4615            0.0000000000
     31194      4751  TIP3      H1             -2.0800476732        9.0421211254      -40.4295945505  TIP3      4615            0.0000000000
     31195      4751  TIP3      H2             -1.0863454161        9.6032750951      -39.4199188497  TIP3      4615            0.0000000000
     31196      4752  TIP3      OH2            -3.9080516713       16.5318086722      -27.3631555787  TIP3      4616            0.0000000000
     31197      4752  TIP3      H1             -4.3277382808       16.0419659230      -26.6358063776  TIP3      4616            0.0000000000
     31198      4752  TIP3      H2             -4.2815632141       17.4218259914      -27.2131453254  TIP3      4616            0.0000000000
     31199      4753  TIP3      OH2            -0.5224543139       10.7864034813      -38.4212389329  TIP3      4617            0.0000000000
     31200      4753  TIP3      H1              0.2084292209       10.4477759881      -37.8674856536  TIP3      4617            0.0000000000
     31201      4753  TIP3      H2             -0.2843127886       11.7119368819      -38.5969824651  TIP3      4617            0.0000000000
     31202      4754  TIP3      OH2           -10.3789638267       15.0698036312      -33.1790009296  TIP3      4618            0.0000000000
     31203      4754  TIP3      H1             -9.9603854292       14.8026417420      -34.0185790944  TIP3      4618            0.0000000000
     31204      4754  TIP3      H2            -10.0516733904       14.4147475494      -32.5413319199  TIP3      4618            0.0000000000
     31205      4755  TIP3      OH2            -3.4320371923       16.8510297597      -39.5410425148  TIP3      4619            0.0000000000
     31206      4755  TIP3      H1             -3.6612293027       17.7221278058      -39.1615002110  TIP3      4619            0.0000000000
     31207      4755  TIP3      H2             -4.1289866538       16.2696571358      -39.1584646345  TIP3      4619            0.0000000000
     31208      4756  TIP3      OH2           -13.4731973165       12.9443659180      -28.0606061108  TIP3      4620            0.0000000000
     31209      4756  TIP3      H1            -13.7423682050       12.6731371471      -27.1656925512  TIP3      4620            0.0000000000
     31210      4756  TIP3      H2            -14.1176543108       12.4475839635      -28.5917543809  TIP3      4620            0.0000000000
     31211      4757  TIP3      OH2            -6.4912358945       13.4370213332      -25.7483383829  TIP3      4621            0.0000000000
     31212      4757  TIP3      H1             -6.7194350867       12.7359628113      -26.4033556331  TIP3      4621            0.0000000000
     31213      4757  TIP3      H2             -5.8508121462       12.9727676751      -25.1927697489  TIP3      4621            0.0000000000
     31214      4758  TIP3      OH2            -1.2784494576       18.4587715636      -27.2167423483  TIP3      4622            0.0000000000
     31215      4758  TIP3      H1             -2.1159435538       18.6547682593      -27.6615803594  TIP3      4622            0.0000000000
     31216      4758  TIP3      H2             -1.5146535998       18.7373222472      -26.2987644101  TIP3      4622            0.0000000000
     31217      4759  TIP3      OH2             4.2814566997       10.3346857650      -39.1732684102  TIP3      4623            0.0000000000
     31218      4759  TIP3      H1              3.7263042061       10.3611171035      -39.9893309583  TIP3      4623            0.0000000000
     31219      4759  TIP3      H2              4.5743289908       11.2603677037      -39.1842114123  TIP3      4623            0.0000000000
     31220      4760  TIP3      OH2             4.4957389498       16.3103843478      -25.9651781422  TIP3      4624            0.0000000000
     31221      4760  TIP3      H1              3.5666027213       16.4031951473      -26.2561387170  TIP3      4624            0.0000000000
     31222      4760  TIP3      H2              4.9716009657       16.2876689290      -26.8273851497  TIP3      4624            0.0000000000
     31223      4761  TIP3      OH2             3.4725532869       19.0781921069      -38.5601410453  TIP3      4625            0.0000000000
     31224      4761  TIP3      H1              3.5242765301       18.1595411300      -38.2695826768  TIP3      4625            0.0000000000
     31225      4761  TIP3      H2              3.7331532308       18.9947677192      -39.5092231641  TIP3      4625            0.0000000000
     31226      4762  TIP3      OH2             0.0115608003       13.9953756598      -31.2457624434  TIP3      4626            0.0000000000
     31227      4762  TIP3      H1             -0.8796568143       13.8903241556      -31.6044765839  TIP3      4626            0.0000000000
     31228      4762  TIP3      H2              0.5558040794       13.8200035461      -32.0434666825  TIP3      4626            0.0000000000
     31229      4763  TIP3      OH2            -8.3578325477       18.5130453160      -35.2904876099  TIP3      4627            0.0000000000
     31230      4763  TIP3      H1             -7.9559963687       19.3888308761      -35.4615045940  TIP3      4627            0.0000000000
     31231      4763  TIP3      H2             -9.1171892828       18.5142087796      -35.8923677313  TIP3      4627            0.0000000000
     31232      4764  TIP3      OH2           -11.9260229573       13.9074450272      -41.5232766508  TIP3      4628            0.0000000000
     31233      4764  TIP3      H1            -11.5343176425       14.1514943217      -40.6579352236  TIP3      4628            0.0000000000
     31234      4764  TIP3      H2            -12.8573761769       13.7471112232      -41.2496960621  TIP3      4628            0.0000000000
     31235      4765  TIP3      OH2            -6.8689747995       16.4111950080      -36.1002646677  TIP3      4629            0.0000000000
     31236      4765  TIP3      H1             -7.3343580040       17.2484782325      -35.8818468782  TIP3      4629            0.0000000000
     31237      4765  TIP3      H2             -7.4269129375       15.7555430032      -35.6499107397  TIP3      4629            0.0000000000
     31238      4766  TIP3      OH2            -5.9806514880       20.6214679327      -29.2698031496  TIP3      4630            0.0000000000
     31239      4766  TIP3      H1             -5.2581595133       21.2408532566      -29.4834156731  TIP3      4630            0.0000000000
     31240      4766  TIP3      H2             -5.5462862350       20.0420636595      -28.6100868834  TIP3      4630            0.0000000000
     31241      4767  TIP3      OH2            -7.7063372878       20.9550157021      -36.4096149000  TIP3      4631            0.0000000000
     31242      4767  TIP3      H1             -8.6264880829       21.1272986752      -36.1283044609  TIP3      4631            0.0000000000
     31243      4767  TIP3      H2             -7.2949939942       21.8055644488      -36.1439173974  TIP3      4631            0.0000000000
     31244      4768  TIP3      OH2            -2.8396558108       16.2649533840      -29.8987565398  TIP3      4632            0.0000000000
     31245      4768  TIP3      H1             -3.0920150563       16.2781278773      -28.9436231284  TIP3      4632            0.0000000000
     31246      4768  TIP3      H2             -2.1543383540       15.5762974748      -29.8899734999  TIP3      4632            0.0000000000
     31247      4769  TIP3      OH2            -0.2719973144       17.7749354724      -40.6415231151  TIP3      4633            0.0000000000
     31248      4769  TIP3      H1             -0.0693987647       17.4881902377      -39.7219753068  TIP3      4633            0.0000000000
     31249      4769  TIP3      H2             -0.9737149065       17.1361237864      -40.8358728401  TIP3      4633            0.0000000000
     31250      4770  TIP3      OH2             0.6412175260       20.5541823964      -27.7336939293  TIP3      4634            0.0000000000
     31251      4770  TIP3      H1             -0.1266010757       19.9523456787      -27.7426685129  TIP3      4634            0.0000000000
     31252      4770  TIP3      H2              0.3232478525       21.3120137795      -28.2662633197  TIP3      4634            0.0000000000
     31253      4771  TIP3      OH2             4.3721888692       22.0729465692      -40.1784001491  TIP3      4635            0.0000000000
     31254      4771  TIP3      H1              4.9741231791       22.2545080407      -40.9192220210  TIP3      4635            0.0000000000
     31255      4771  TIP3      H2              3.9903659376       22.9666813366      -40.0270450610  TIP3      4635            0.0000000000
     31256      4772  TIP3      OH2           -11.7148502551        7.8632211986      -28.0879995790  TIP3      4636            0.0000000000
     31257      4772  TIP3      H1            -12.5879388115        8.2218290876      -27.8319197269  TIP3      4636            0.0000000000
     31258      4772  TIP3      H2            -11.7344443961        7.0357834743      -27.5758804034  TIP3      4636            0.0000000000
     31259      4773  TIP3      OH2             0.7034878948       16.4352324089      -38.4651902046  TIP3      4637            0.0000000000
     31260      4773  TIP3      H1              0.4732453037       15.6466289451      -37.9266800746  TIP3      4637            0.0000000000
     31261      4773  TIP3      H2              1.6539982656       16.2430446355      -38.5740640349  TIP3      4637            0.0000000000
     31262      4774  TIP3      OH2           -11.8906847210       19.7170777246      -29.7756209624  TIP3      4638            0.0000000000
     31263      4774  TIP3      H1            -11.2968928609       18.9781365636      -29.5612900857  TIP3      4638            0.0000000000
     31264      4774  TIP3      H2            -11.6243186982       20.3486841708      -29.0876371354  TIP3      4638            0.0000000000
     31265      4775  TIP3      OH2            -7.3870003294       18.0233928749      -39.6551920873  TIP3      4639            0.0000000000
     31266      4775  TIP3      H1             -6.7409766907       17.4681660302      -39.1884909978  TIP3      4639            0.0000000000
     31267      4775  TIP3      H2             -7.1392982971       18.9451473304      -39.4001614900  TIP3      4639            0.0000000000
     31268      4776  TIP3      OH2           -10.9501625719       15.0724209371      -39.1550221509  TIP3      4640            0.0000000000
     31269      4776  TIP3      H1            -11.6927866117       15.4730904821      -38.6452223789  TIP3      4640            0.0000000000
     31270      4776  TIP3      H2            -10.4658184488       15.8728043147      -39.4348327510  TIP3      4640            0.0000000000
     31271      4777  TIP3      OH2            -1.8388655947        7.2953382339      -29.0107074722  TIP3      4641            0.0000000000
     31272      4777  TIP3      H1             -1.3919912384        7.8931609571      -28.3734510927  TIP3      4641            0.0000000000
     31273      4777  TIP3      H2             -2.0739520364        6.5118498796      -28.4836241812  TIP3      4641            0.0000000000
     31274      4778  TIP3      OH2            -2.1680157367        7.6029079501      -37.5084821651  TIP3      4642            0.0000000000
     31275      4778  TIP3      H1             -1.8234885396        7.9483306456      -38.3704683171  TIP3      4642            0.0000000000
     31276      4778  TIP3      H2             -1.7947958523        8.2237618192      -36.8611376141  TIP3      4642            0.0000000000
     31277      4779  TIP3      OH2            -4.3443223882       19.3200928331      -38.8110204118  TIP3      4643            0.0000000000
     31278      4779  TIP3      H1             -4.9565318811       20.0766800473      -38.7528382495  TIP3      4643            0.0000000000
     31279      4779  TIP3      H2             -3.7837562963       19.5943072676      -39.5520422703  TIP3      4643            0.0000000000
     31280      4780  TIP3      OH2            -4.8919852056        9.6338268676      -36.6368788463  TIP3      4644            0.0000000000
     31281      4780  TIP3      H1             -4.1569365521       10.2690714058      -36.6055132004  TIP3      4644            0.0000000000
     31282      4780  TIP3      H2             -4.7260783690        9.0636387430      -35.8609170299  TIP3      4644            0.0000000000
     31283      4781  TIP3      OH2            -3.7499361155       10.5720268694      -28.0371333622  TIP3      4645            0.0000000000
     31284      4781  TIP3      H1             -4.1104159211       11.2675357812      -27.4279871541  TIP3      4645            0.0000000000
     31285      4781  TIP3      H2             -3.0401519603       10.2286181961      -27.4683705072  TIP3      4645            0.0000000000
     31286      4782  TIP3      OH2            -4.2229953668        6.1687605714      -36.5141568993  TIP3      4646            0.0000000000
     31287      4782  TIP3      H1             -4.6367684233        6.7330022615      -35.8243008925  TIP3      4646            0.0000000000
     31288      4782  TIP3      H2             -3.4153223205        6.7064422449      -36.7269679234  TIP3      4646            0.0000000000
     31289      4783  TIP3      OH2            -7.0075291522       20.6735170697      -39.1165672807  TIP3      4647            0.0000000000
     31290      4783  TIP3      H1             -6.7851537916       21.5549155544      -39.4552051023  TIP3      4647            0.0000000000
     31291      4783  TIP3      H2             -7.4336584092       20.8821407781      -38.2534306426  TIP3      4647            0.0000000000
     31292      4784  TIP3      OH2            -8.3773274157        7.3285353337      -39.0705592622  TIP3      4648            0.0000000000
     31293      4784  TIP3      H1             -8.2192898963        8.2362863595      -38.7337113634  TIP3      4648            0.0000000000
     31294      4784  TIP3      H2             -7.6085488408        6.8331325749      -38.7367120175  TIP3      4648            0.0000000000
     31295      4785  TIP3      OH2             1.6945964444        8.2609871693      -27.0555624230  TIP3      4649            0.0000000000
     31296      4785  TIP3      H1              0.7685408076        8.3436399706      -27.3381274220  TIP3      4649            0.0000000000
     31297      4785  TIP3      H2              2.1592659201        8.3683485196      -27.9070536275  TIP3      4649            0.0000000000
     31298      4786  TIP3      OH2             0.9493133930       12.4051794267      -33.3391537254  TIP3      4650            0.0000000000
     31299      4786  TIP3      H1              0.1399060681       11.9268408619      -33.1035391575  TIP3      4650            0.0000000000
     31300      4786  TIP3      H2              1.6118056325       11.9194902631      -32.7908471493  TIP3      4650            0.0000000000
     31301      4787  TIP3      OH2            -9.9670258407       17.8524461771      -41.0324834704  TIP3      4651            0.0000000000
     31302      4787  TIP3      H1             -9.2249821876       18.0923731487      -40.4399488258  TIP3      4651            0.0000000000
     31303      4787  TIP3      H2             -9.5381140081       17.1864359913      -41.6052923671  TIP3      4651            0.0000000000
     31304      4788  TIP3      OH2           -12.1454588703       10.7886405630      -41.2465309487  TIP3      4652            0.0000000000
     31305      4788  TIP3      H1            -11.4575109025       11.4742212158      -41.2170480104  TIP3      4652            0.0000000000
     31306      4788  TIP3      H2            -12.8908999403       11.2485250291      -41.6600480212  TIP3      4652            0.0000000000
     31307      4789  TIP3      OH2             1.1372949077       21.5067790302      -31.4184882312  TIP3      4653            0.0000000000
     31308      4789  TIP3      H1              1.1381240443       22.1993867696      -32.1135578055  TIP3      4653            0.0000000000
     31309      4789  TIP3      H2              2.1040951329       21.3906298115      -31.3440724707  TIP3      4653            0.0000000000
     31310      4790  TIP3      OH2           -11.3318094617        5.3249578071      -32.2777179670  TIP3      4654            0.0000000000
     31311      4790  TIP3      H1            -11.3789963252        5.1318114180      -33.2407625035  TIP3      4654            0.0000000000
     31312      4790  TIP3      H2            -11.3628770660        4.3848142587      -31.9790421087  TIP3      4654            0.0000000000
     31313      4791  TIP3      OH2           -11.9925180199       19.4045326251      -36.0275840488  TIP3      4655            0.0000000000
     31314      4791  TIP3      H1            -12.8642161260       19.1491859473      -35.7006893199  TIP3      4655            0.0000000000
     31315      4791  TIP3      H2            -12.1947467336       19.5404345835      -36.9720064900  TIP3      4655            0.0000000000
     31316      4792  TIP3      OH2           -12.9558480506       21.8904261053      -25.4495660193  TIP3      4656            0.0000000000
     31317      4792  TIP3      H1            -12.6323609581       21.7814960161      -24.5419230165  TIP3      4656            0.0000000000
     31318      4792  TIP3      H2            -13.4641645262       21.0649448068      -25.5936561820  TIP3      4656            0.0000000000
     31319      4793  TIP3      OH2            -8.5063673010       21.3347743469      -23.8795947708  TIP3      4657            0.0000000000
     31320      4793  TIP3      H1             -8.1661225494       20.6900921981      -23.2474586720  TIP3      4657            0.0000000000
     31321      4793  TIP3      H2             -8.2986123615       20.8736622734      -24.7178436329  TIP3      4657            0.0000000000
     31322      4794  TIP3      OH2            -1.9775164858       19.4719911254      -24.9013560391  TIP3      4658            0.0000000000
     31323      4794  TIP3      H1             -2.2162941072       18.6073718511      -24.4697901258  TIP3      4658            0.0000000000
     31324      4794  TIP3      H2             -1.1991995905       19.6915748283      -24.3426358504  TIP3      4658            0.0000000000
     31325      4795  TIP3      OH2             0.8197149884       19.8186119535      -42.1395689480  TIP3      4659            0.0000000000
     31326      4795  TIP3      H1              0.4769391662       18.9712962069      -41.7535092196  TIP3      4659            0.0000000000
     31327      4795  TIP3      H2              1.5225477140       19.4643137624      -42.7425867620  TIP3      4659            0.0000000000
     31328      4796  TIP3      OH2            -8.4932975512       15.9871080910      -42.3546220090  TIP3      4660            0.0000000000
     31329      4796  TIP3      H1             -7.9774217393       15.9662287583      -41.5333601085  TIP3      4660            0.0000000000
     31330      4796  TIP3      H2             -7.9493612939       15.4210374528      -42.9484240392  TIP3      4660            0.0000000000
     31331      4797  TIP3      OH2            -6.0345229111       16.0656870828      -25.1479736931  TIP3      4661            0.0000000000
     31332      4797  TIP3      H1             -6.5020201054       16.5365643580      -25.8728965452  TIP3      4661            0.0000000000
     31333      4797  TIP3      H2             -6.2434516201       15.1140977173      -25.3398453986  TIP3      4661            0.0000000000
     31334      4798  TIP3      OH2            -0.5425371315       15.5729438883      -27.5124563992  TIP3      4662            0.0000000000
     31335      4798  TIP3      H1              0.3637606943       15.9251566307      -27.5765126399  TIP3      4662            0.0000000000
     31336      4798  TIP3      H2             -1.0130627833       16.4215151104      -27.3872971725  TIP3      4662            0.0000000000
     31337      4799  TIP3      OH2           -11.2641559181       13.1338316075      -25.2562812861  TIP3      4663            0.0000000000
     31338      4799  TIP3      H1            -11.8642333152       12.3791235814      -25.3170442943  TIP3      4663            0.0000000000
     31339      4799  TIP3      H2            -11.3698349820       13.3628568103      -24.3152015740  TIP3      4663            0.0000000000
     31340      4800  TIP3      OH2            -7.4638668314       14.2621779153      -39.4533146888  TIP3      4664            0.0000000000
     31341      4800  TIP3      H1             -8.1983980296       13.7956124932      -39.0062297512  TIP3      4664            0.0000000000
     31342      4800  TIP3      H2             -7.2775976401       13.6435520780      -40.1785537125  TIP3      4664            0.0000000000
     31343      4801  TIP3      OH2            -7.5915706088       11.8037321658      -27.6421031660  TIP3      4665            0.0000000000
     31344      4801  TIP3      H1             -8.5086417270       12.1419234153      -27.6754178319  TIP3      4665            0.0000000000
     31345      4801  TIP3      H2             -7.1347718024       12.2595849936      -28.3813957198  TIP3      4665            0.0000000000
     31346      4802  TIP3      OH2            -6.2576391457       12.4111786993      -41.4515322875  TIP3      4666            0.0000000000
     31347      4802  TIP3      H1             -6.0811867925       12.9264001393      -42.2574407833  TIP3      4666            0.0000000000
     31348      4802  TIP3      H2             -5.3564961189       12.4626264665      -41.0603709039  TIP3      4666            0.0000000000
     31349      4803  TIP3      OH2            -2.4686575282       14.3562064601      -24.4348968790  TIP3      4667            0.0000000000
     31350      4803  TIP3      H1             -1.6263238524       14.6071067327      -24.0199802279  TIP3      4667            0.0000000000
     31351      4803  TIP3      H2             -2.8218581066       13.6980677258      -23.7961097987  TIP3      4667            0.0000000000
     31352      4804  TIP3      OH2             3.4937345251       15.0580062230      -42.7865702547  TIP3      4668            0.0000000000
     31353      4804  TIP3      H1              2.9117778318       15.1083878314      -43.5606742332  TIP3      4668            0.0000000000
     31354      4804  TIP3      H2              3.8621349500       15.9538269105      -42.7082986096  TIP3      4668            0.0000000000
     31355      4805  TIP3      OH2            -7.0583359693        9.3456024202      -26.7924777126  TIP3      4669            0.0000000000
     31356      4805  TIP3      H1             -7.2158668336        8.6427244331      -27.4553291477  TIP3      4669            0.0000000000
     31357      4805  TIP3      H2             -7.2067375875       10.1880259319      -27.2927998111  TIP3      4669            0.0000000000
     31358      4806  TIP3      OH2            -7.2295367050        7.4708144543      -28.6302904864  TIP3      4670            0.0000000000
     31359      4806  TIP3      H1             -7.0068991543        8.0241930289      -29.4143853154  TIP3      4670            0.0000000000
     31360      4806  TIP3      H2             -8.1779090031        7.3136512077      -28.8385057137  TIP3      4670            0.0000000000
     31361      4807  TIP3      OH2            -5.6280649130       12.9253029065      -29.3135443481  TIP3      4671            0.0000000000
     31362      4807  TIP3      H1             -4.7734652834       13.3388809348      -29.4831418189  TIP3      4671            0.0000000000
     31363      4807  TIP3      H2             -6.2253751931       13.7027451984      -29.4055107822  TIP3      4671            0.0000000000
     31364      4808  TIP3      OH2            -1.2043328416       10.7687718645      -23.9792882746  TIP3      4672            0.0000000000
     31365      4808  TIP3      H1             -1.0881927031        9.8782375627      -23.6078003552  TIP3      4672            0.0000000000
     31366      4808  TIP3      H2             -0.3545200643       11.1689999522      -23.7533932316  TIP3      4672            0.0000000000
     31367      4809  TIP3      OH2             0.4364708792       13.8580779937      -25.2610829513  TIP3      4673            0.0000000000
     31368      4809  TIP3      H1             -0.0770212220       14.3840596159      -25.8987177463  TIP3      4673            0.0000000000
     31369      4809  TIP3      H2              1.3268473357       13.8817770968      -25.6662335225  TIP3      4673            0.0000000000
     31370      4810  TIP3      OH2            -8.8157141355        8.9967430025      -24.6618374116  TIP3      4674            0.0000000000
     31371      4810  TIP3      H1             -9.7028913653        9.1899390675      -25.0108659383  TIP3      4674            0.0000000000
     31372      4810  TIP3      H2             -8.2231272486        9.1977377900      -25.4183691744  TIP3      4674            0.0000000000
     31373      4811  TIP3      OH2            -6.5466537838        4.9473766966      -28.9722863881  TIP3      4675            0.0000000000
     31374      4811  TIP3      H1             -6.9240651653        5.8338762014      -28.7679812513  TIP3      4675            0.0000000000
     31375      4811  TIP3      H2             -7.3306303449        4.4043144535      -29.1761433188  TIP3      4675            0.0000000000
     31376      4812  TIP3      OH2            -5.3064999272        8.9090642373      -24.6403086759  TIP3      4676            0.0000000000
     31377      4812  TIP3      H1             -5.9218423359        8.8870360728      -23.8775163584  TIP3      4676            0.0000000000
     31378      4812  TIP3      H2             -5.9166735185        9.1215778297      -25.3756863389  TIP3      4676            0.0000000000
     31379      4813  TIP3      OH2            -2.9063080351        8.5361412706      -25.8296134149  TIP3      4677            0.0000000000
     31380      4813  TIP3      H1             -3.7775355522        8.7952264955      -25.4466926648  TIP3      4677            0.0000000000
     31381      4813  TIP3      H2             -2.5494005732        7.9634216340      -25.1153284332  TIP3      4677            0.0000000000
     31382      4814  TIP3      OH2            -1.3616736889        7.0702222774      -24.0059584688  TIP3      4678            0.0000000000
     31383      4814  TIP3      H1             -1.2640333087        6.0975125962      -23.8868715220  TIP3      4678            0.0000000000
     31384      4814  TIP3      H2             -0.5766913409        7.4158328105      -23.4965077758  TIP3      4678            0.0000000000
     31385      4815  TIP3      OH2           -11.6441066977        8.3172705223      -24.7084232755  TIP3      4679            0.0000000000
     31386      4815  TIP3      H1            -11.3807306711        7.4195247172      -24.9920977135  TIP3      4679            0.0000000000
     31387      4815  TIP3      H2            -11.5091620731        8.3033772842      -23.7254960140  TIP3      4679            0.0000000000
     31388      4816  TIP3      OH2            -6.4870427866        4.9873834791      -26.1848117299  TIP3      4680            0.0000000000
     31389      4816  TIP3      H1             -5.8240026004        4.3744195937      -25.8329413025  TIP3      4680            0.0000000000
     31390      4816  TIP3      H2             -6.4581510872        4.7720217659      -27.1358969927  TIP3      4680            0.0000000000
     31391      4817  TIP3      OH2            -6.5549055187        5.7505900163      -23.1039286879  TIP3      4681            0.0000000000
     31392      4817  TIP3      H1             -6.2610642537        5.7203325391      -24.0300476488  TIP3      4681            0.0000000000
     31393      4817  TIP3      H2             -6.7264553736        6.7085233536      -23.0004753459  TIP3      4681            0.0000000000
     31394      4818  TIP3      OH2            -6.6476422403       23.2492311844      -41.1300491296  TIP3      4682            0.0000000000
     31395      4818  TIP3      H1             -5.6925761195       23.0842381474      -40.9530784902  TIP3      4682            0.0000000000
     31396      4818  TIP3      H2             -6.6698878188       23.1547127358      -42.1016581601  TIP3      4682            0.0000000000
     31397      4819  TIP3      OH2           -12.9642210519       17.1833235939      -41.1402243964  TIP3      4683            0.0000000000
     31398      4819  TIP3      H1            -12.0029342709       17.1716807728      -41.3082311571  TIP3      4683            0.0000000000
     31399      4819  TIP3      H2            -13.3300118797       17.0798228287      -42.0412537352  TIP3      4683            0.0000000000
     31400      4820  TIP3      OH2           -13.9900161599       22.9422603044      -36.0831447941  TIP3      4684            0.0000000000
     31401      4820  TIP3      H1            -14.7144134574       22.3536287537      -36.4098460933  TIP3      4684            0.0000000000
     31402      4820  TIP3      H2            -13.7104377593       22.4001177497      -35.3113411820  TIP3      4684            0.0000000000
     31403      4821  TIP3      OH2           -13.1913367764       21.3206632071      -34.0059440491  TIP3      4685            0.0000000000
     31404      4821  TIP3      H1            -13.8074962705       20.8091187300      -33.4489964760  TIP3      4685            0.0000000000
     31405      4821  TIP3      H2            -12.4777196889       21.4955388655      -33.3638247930  TIP3      4685            0.0000000000
     31406      4822  TIP3      OH2             3.7431398611       21.6363710687      -31.6451811498  TIP3      4686            0.0000000000
     31407      4822  TIP3      H1              4.5577058258       21.7106721473      -31.1214908802  TIP3      4686            0.0000000000
     31408      4822  TIP3      H2              3.5804581488       22.5697229602      -31.8741314500  TIP3      4686            0.0000000000
     31409      4823  TIP3      OH2             3.9218235156       21.1927308902      -28.4392409009  TIP3      4687            0.0000000000
     31410      4823  TIP3      H1              3.4068025456       20.5693471933      -28.9821352647  TIP3      4687            0.0000000000
     31411      4823  TIP3      H2              4.0292277855       20.6903851915      -27.6057557315  TIP3      4687            0.0000000000
     31412      4824  TIP3      OH2             2.6468190781       17.2970691916      -23.3769775970  TIP3      4688            0.0000000000
     31413      4824  TIP3      H1              1.6888093544       17.2951693951      -23.2402506617  TIP3      4688            0.0000000000
     31414      4824  TIP3      H2              2.8807880121       18.1914956512      -23.0471254786  TIP3      4688            0.0000000000
     31415      4825  TIP3      OH2             3.3254138155       15.6738219255      -38.5976204937  TIP3      4689            0.0000000000
     31416      4825  TIP3      H1              4.2207790877       15.9354579623      -38.2870667473  TIP3      4689            0.0000000000
     31417      4825  TIP3      H2              3.1575154212       14.9079210575      -38.0150883139  TIP3      4689            0.0000000000
     31418      4826  TIP3      OH2             4.1663255319       13.3860032438      -36.5463858235  TIP3      4690            0.0000000000
     31419      4826  TIP3      H1              3.3047484500       12.9576057689      -36.3077488100  TIP3      4690            0.0000000000
     31420      4826  TIP3      H2              4.5385196405       13.5268052302      -35.6550049832  TIP3      4690            0.0000000000
     31421      4827  TIP3      OH2             4.0981860203       16.3144347272      -31.9271080566  TIP3      4691            0.0000000000
     31422      4827  TIP3      H1              4.6116741191       15.4713529896      -31.9055317893  TIP3      4691            0.0000000000
     31423      4827  TIP3      H2              4.8104234802       16.9553609523      -32.1124982582  TIP3      4691            0.0000000000
     31424      4828  TIP3      OH2             2.3824226916       19.0730559797      -29.1027287946  TIP3      4692            0.0000000000
     31425      4828  TIP3      H1              2.1057344608       19.5529780752      -28.2915628697  TIP3      4692            0.0000000000
     31426      4828  TIP3      H2              1.4948747021       18.9453848479      -29.4676383919  TIP3      4692            0.0000000000
     31427      4829  TIP3      OH2             4.6621165632       13.3587316367      -40.0037754701  TIP3      4693            0.0000000000
     31428      4829  TIP3      H1              3.9476074272       13.7578471358      -40.5309149005  TIP3      4693            0.0000000000
     31429      4829  TIP3      H2              4.8622629869       14.0855616738      -39.3921627031  TIP3      4693            0.0000000000
     31430      4830  TIP3      OH2             3.3342430384       10.5894615132      -41.7842659003  TIP3      4694            0.0000000000
     31431      4830  TIP3      H1              3.7951183080       11.0155518469      -42.5449416499  TIP3      4694            0.0000000000
     31432      4830  TIP3      H2              2.5788999667       10.2431961359      -42.2792867969  TIP3      4694            0.0000000000
     31433      4831  TIP3      OH2             1.8612800531       12.3082457868      -35.7935445785  TIP3      4695            0.0000000000
     31434      4831  TIP3      H1              1.1898604720       11.6409688203      -36.0079613894  TIP3      4695            0.0000000000
     31435      4831  TIP3      H2              1.7761887221       12.3116238917      -34.8068955834  TIP3      4695            0.0000000000
     31436      4832  TIP3      OH2           -13.2220271887       14.2145106877      -31.4127745676  TIP3      4696            0.0000000000
     31437      4832  TIP3      H1            -13.1880050789       13.9658454975      -32.3656989445  TIP3      4696            0.0000000000
     31438      4832  TIP3      H2            -12.2802356879       14.1284814040      -31.1417166635  TIP3      4696            0.0000000000
     31439      4833  TIP3      OH2             3.1029760520       13.8793302016      -26.1052693779  TIP3      4697            0.0000000000
     31440      4833  TIP3      H1              3.4817046377       13.0026639795      -25.8804102294  TIP3      4697            0.0000000000
     31441      4833  TIP3      H2              3.8819677433       14.3784793860      -26.3949254659  TIP3      4697            0.0000000000
     31442      4834  TIP3      OH2             4.4498846415       11.5177763355      -25.8424405533  TIP3      4698            0.0000000000
     31443      4834  TIP3      H1              3.5329369072       11.1496672324      -25.8824260095  TIP3      4698            0.0000000000
     31444      4834  TIP3      H2              4.9849437199       10.7002753655      -25.7616989641  TIP3      4698            0.0000000000
     31445      4835  TIP3      OH2             1.1082357087        9.6668010357      -36.6313828501  TIP3      4699            0.0000000000
     31446      4835  TIP3      H1              1.1827625901        8.6933022871      -36.8021459069  TIP3      4699            0.0000000000
     31447      4835  TIP3      H2              2.0010626300        9.9058459066      -36.9247546753  TIP3      4699            0.0000000000
     31448      4836  TIP3      OH2             2.6632229031       10.7049874662      -32.0832394877  TIP3      4700            0.0000000000
     31449      4836  TIP3      H1              3.6064711234       10.7598680018      -31.7935255866  TIP3      4700            0.0000000000
     31450      4836  TIP3      H2              2.2565660227       10.5531167654      -31.2061200880  TIP3      4700            0.0000000000
     31451      4837  TIP3      OH2             2.3671912551       11.1648120459      -29.3796801217  TIP3      4701            0.0000000000
     31452      4837  TIP3      H1              1.6485374541       11.3505955982      -28.7461571639  TIP3      4701            0.0000000000
     31453      4837  TIP3      H2              2.8840359700       11.9932437606      -29.3380634349  TIP3      4701            0.0000000000
     31454      4838  TIP3      OH2           -14.0736013920        9.1383731013      -25.2511570939  TIP3      4702            0.0000000000
     31455      4838  TIP3      H1            -13.1458472156        8.8856420451      -25.0223631376  TIP3      4702            0.0000000000
     31456      4838  TIP3      H2            -14.5418324595        8.2859501479      -25.2218427672  TIP3      4702            0.0000000000
     31457      4839  TIP3      OH2             3.9090154181        5.3186457288      -24.0573026998  TIP3      4703            0.0000000000
     31458      4839  TIP3      H1              4.5968540968        4.9648689688      -24.6399714975  TIP3      4703            0.0000000000
     31459      4839  TIP3      H2              3.8290099713        6.2551043035      -24.3162255523  TIP3      4703            0.0000000000
     31460      4840  TIP3      OH2             1.6945725645        7.0438742763      -36.9598440198  TIP3      4704            0.0000000000
     31461      4840  TIP3      H1              1.9651843775        6.9358506951      -36.0286458934  TIP3      4704            0.0000000000
     31462      4840  TIP3      H2              1.8486381147        6.1669387486      -37.3343183693  TIP3      4704            0.0000000000
     31463      4841  TIP3      OH2           -12.1213370299        7.7729869210      -31.6794738506  TIP3      4705            0.0000000000
     31464      4841  TIP3      H1            -11.8778268173        6.8256055342      -31.8122231059  TIP3      4705            0.0000000000
     31465      4841  TIP3      H2            -11.3440580159        8.2671454601      -32.0206373016  TIP3      4705            0.0000000000
     31466      4842  TIP3      OH2           -13.9808043358       10.6558263859      -31.5254570684  TIP3      4706            0.0000000000
     31467      4842  TIP3      H1            -13.4153916774       10.4027156348      -32.2741397435  TIP3      4706            0.0000000000
     31468      4842  TIP3      H2            -13.3993175485       11.2912078284      -31.0880425675  TIP3      4706            0.0000000000
     31469      4843  TIP3      OH2             3.7020728063        7.6695202822      -25.5037802729  TIP3      4707            0.0000000000
     31470      4843  TIP3      H1              2.8204904785        8.0273419466      -25.7686108901  TIP3      4707            0.0000000000
     31471      4843  TIP3      H2              3.7358073323        6.9513431010      -26.1536366463  TIP3      4707            0.0000000000
     31472      4844  TIP3      OH2             3.5733078985        7.0623635300      -40.8420805339  TIP3      4708            0.0000000000
     31473      4844  TIP3      H1              3.2537373132        7.0300914876      -41.7578686769  TIP3      4708            0.0000000000
     31474      4844  TIP3      H2              4.1136313685        7.8594888624      -40.8747454663  TIP3      4708            0.0000000000
     31475      4845  TIP3      OH2           -14.2607723923        7.2409238737      -37.7190962857  TIP3      4709            0.0000000000
     31476      4845  TIP3      H1            -14.9571071349        7.1648721638      -38.3866985120  TIP3      4709            0.0000000000
     31477      4845  TIP3      H2            -13.5224646706        7.4370820942      -38.3191944487  TIP3      4709            0.0000000000
     31478      4846  TIP3      OH2             1.2891584696       21.8086921951      -35.0455397252  TIP3      4710            0.0000000000
     31479      4846  TIP3      H1              1.7283204547       21.9051242380      -35.9119688138  TIP3      4710            0.0000000000
     31480      4846  TIP3      H2              1.6400628653       22.5627263398      -34.5283528325  TIP3      4710            0.0000000000
     31481      4847  TIP3      OH2           -13.7349095685        5.2018861285      -29.3909272728  TIP3      4711            0.0000000000
     31482      4847  TIP3      H1            -14.3799364069        5.1972072156      -28.6671949456  TIP3      4711            0.0000000000
     31483      4847  TIP3      H2            -13.9442060769        6.0012480897      -29.9138575688  TIP3      4711            0.0000000000
     31484      4848  TIP3      OH2           -11.0933002639       19.1734771896      -24.2873930558  TIP3      4712            0.0000000000
     31485      4848  TIP3      H1            -11.7547852741       19.2971604610      -24.9870441623  TIP3      4712            0.0000000000
     31486      4848  TIP3      H2            -10.8878800105       18.2210256011      -24.3767520479  TIP3      4712            0.0000000000
     31487      4849  TIP3      OH2            -8.6915900777       20.4728766393      -28.2473600835  TIP3      4713            0.0000000000
     31488      4849  TIP3      H1             -8.6037867428       21.3097101281      -28.7654385080  TIP3      4713            0.0000000000
     31489      4849  TIP3      H2             -7.9207177318       20.0001127798      -28.5954704129  TIP3      4713            0.0000000000
     31490      4850  TIP3      OH2            -4.4502268574       21.4457832476      -25.8669131298  TIP3      4714            0.0000000000
     31491      4850  TIP3      H1             -4.1882740168       20.9261238081      -25.0891993967  TIP3      4714            0.0000000000
     31492      4850  TIP3      H2             -3.5689846145       21.8098338626      -26.1240632419  TIP3      4714            0.0000000000
     31493      4851  TIP3      OH2            -2.2559665454       22.8079448109      -26.5027408709  TIP3      4715            0.0000000000
     31494      4851  TIP3      H1             -1.5619502709       22.4789242613      -27.0877291347  TIP3      4715            0.0000000000
     31495      4851  TIP3      H2             -1.7530487523       23.1539280230      -25.7395078834  TIP3      4715            0.0000000000
     31496      4852  TIP3      OH2             3.2203378188        5.0798040547      -27.3279971614  TIP3      4716            0.0000000000
     31497      4852  TIP3      H1              2.4598310927        5.4361731282      -27.8087345393  TIP3      4716            0.0000000000
     31498      4852  TIP3      H2              3.2357366273        4.1454749204      -27.6208147940  TIP3      4716            0.0000000000
     31499      4853  TIP3      OH2           -11.3823099004       23.1921877274      -28.8070087703  TIP3      4717            0.0000000000
     31500      4853  TIP3      H1            -12.0447453656       23.8436564654      -29.1178608487  TIP3      4717            0.0000000000
     31501      4853  TIP3      H2            -11.3957705016       23.3423417556      -27.8440478288  TIP3      4717            0.0000000000
     31502      4854  TIP3      OH2            -8.8489176355       22.7125456536      -29.7464445004  TIP3      4718            0.0000000000
     31503      4854  TIP3      H1             -9.8176910306       22.8313203204      -29.5674740999  TIP3      4718            0.0000000000
     31504      4854  TIP3      H2             -8.7342089103       23.4109747466      -30.4255466121  TIP3      4718            0.0000000000
     31505      4855  TIP3      OH2            -4.0999443015       22.4018293536      -30.6641197447  TIP3      4719            0.0000000000
     31506      4855  TIP3      H1             -4.8521996169       22.9320245089      -30.9809194501  TIP3      4719            0.0000000000
     31507      4855  TIP3      H2             -3.8404410213       22.9517718942      -29.8808395510  TIP3      4719            0.0000000000
     31508      4856  TIP3      OH2            -1.8005205300       21.0813401445      -29.3324553241  TIP3      4720            0.0000000000
     31509      4856  TIP3      H1             -2.4548529859       21.3663161464      -29.9957156238  TIP3      4720            0.0000000000
     31510      4856  TIP3      H2             -1.2211618861       21.8697402826      -29.3126608943  TIP3      4720            0.0000000000
     31511      4857  TIP3      OH2             0.2616110246       22.9478115318      -29.2491827176  TIP3      4721            0.0000000000
     31512      4857  TIP3      H1              0.3192539543       23.9133889089      -29.3874145461  TIP3      4721            0.0000000000
     31513      4857  TIP3      H2              0.6028284107       22.6463629995      -30.1196343190  TIP3      4721            0.0000000000
     31514      4858  TIP3      OH2           -11.6896172185       21.5838983297      -31.7658780906  TIP3      4722            0.0000000000
     31515      4858  TIP3      H1            -11.8544164232       20.8443163164      -31.1319919103  TIP3      4722            0.0000000000
     31516      4858  TIP3      H2            -10.7312577510       21.4272314286      -31.9360164459  TIP3      4722            0.0000000000
     31517      4859  TIP3      OH2            -9.3673083233       20.8602684165      -33.0877022867  TIP3      4723            0.0000000000
     31518      4859  TIP3      H1             -9.5945001148       19.9220178130      -32.9693339097  TIP3      4723            0.0000000000
     31519      4859  TIP3      H2             -8.4768973980       20.8536589947      -32.6614375366  TIP3      4723            0.0000000000
     31520      4860  TIP3      OH2            -7.0299437583       20.7007741871      -31.9075345351  TIP3      4724            0.0000000000
     31521      4860  TIP3      H1             -6.7228091868       19.8057706746      -32.1270496604  TIP3      4724            0.0000000000
     31522      4860  TIP3      H2             -6.7981066723       20.7570026601      -30.9588871749  TIP3      4724            0.0000000000
     31523      4861  TIP3      OH2            -4.1214054283        6.4801783177      -32.3015023371  TIP3      4725            0.0000000000
     31524      4861  TIP3      H1             -4.7795366180        5.7548609853      -32.2197430543  TIP3      4725            0.0000000000
     31525      4861  TIP3      H2             -3.4752611807        6.0936174564      -32.9062540390  TIP3      4725            0.0000000000
     31526      4862  TIP3      OH2             1.7303003376        4.7908523000      -33.1329918290  TIP3      4726            0.0000000000
     31527      4862  TIP3      H1              2.3835955720        5.2111837351      -33.7414779546  TIP3      4726            0.0000000000
     31528      4862  TIP3      H2              0.8735458686        5.0220099420      -33.5667376988  TIP3      4726            0.0000000000
     31529      4863  TIP3      OH2             3.4352419340        5.5712905978      -35.0909404097  TIP3      4727            0.0000000000
     31530      4863  TIP3      H1              3.9808812841        4.9139683691      -35.5841025649  TIP3      4727            0.0000000000
     31531      4863  TIP3      H2              4.0622884775        6.3243758289      -34.9584898085  TIP3      4727            0.0000000000
     31532      4864  TIP3      OH2           -11.4984382393        4.7411540802      -34.9318345794  TIP3      4728            0.0000000000
     31533      4864  TIP3      H1            -12.2825484000        4.5651254223      -35.4975002296  TIP3      4728            0.0000000000
     31534      4864  TIP3      H2            -10.9202135173        3.9867603975      -35.1816490449  TIP3      4728            0.0000000000
     31535      4865  TIP3      OH2           -12.4769411650        4.7618854581      -39.4558803248  TIP3      4729            0.0000000000
     31536      4865  TIP3      H1            -11.8925843674        5.4324452508      -39.8863683281  TIP3      4729            0.0000000000
     31537      4865  TIP3      H2            -12.9904844927        5.2688481282      -38.8161449525  TIP3      4729            0.0000000000
     31538      4866  TIP3      OH2            -6.7898275631        4.7595856294      -35.2384253480  TIP3      4730            0.0000000000
     31539      4866  TIP3      H1             -5.9749932174        4.7713354917      -35.7633231158  TIP3      4730            0.0000000000
     31540      4866  TIP3      H2             -6.9782804698        5.7057665618      -35.1046733339  TIP3      4730            0.0000000000
     31541      4867  TIP3      OH2            -0.8690900649        5.0948100479      -34.3262253268  TIP3      4731            0.0000000000
     31542      4867  TIP3      H1             -1.2186813071        5.2226113896      -35.2226473223  TIP3      4731            0.0000000000
     31543      4867  TIP3      H2             -1.3685405210        4.2852256051      -34.0486640614  TIP3      4731            0.0000000000
     31544      4868  TIP3      OH2             0.2169590685        4.7156358780      -38.9385163736  TIP3      4732            0.0000000000
     31545      4868  TIP3      H1             -0.2325381347        5.5682772291      -38.8322536434  TIP3      4732            0.0000000000
     31546      4868  TIP3      H2             -0.1028075618        4.2247764729      -38.1434717098  TIP3      4732            0.0000000000
     31547      4869  TIP3      OH2           -13.0258943712       20.5073760482      -38.4891329420  TIP3      4733            0.0000000000
     31548      4869  TIP3      H1            -13.5288940673       20.8846042494      -39.2415569684  TIP3      4733            0.0000000000
     31549      4869  TIP3      H2            -12.5921848160       21.3157232689      -38.1792613107  TIP3      4733            0.0000000000
     31550      4870  TIP3      OH2           -10.5277827761        6.1236779940      -40.7854026799  TIP3      4734            0.0000000000
     31551      4870  TIP3      H1             -9.8505624317        5.4399752386      -40.9102271814  TIP3      4734            0.0000000000
     31552      4870  TIP3      H2             -9.9971502236        6.8613596305      -40.4376777385  TIP3      4734            0.0000000000
     31553      4871  TIP3      OH2            -5.1386785121        7.5025660296      -38.7024122952  TIP3      4735            0.0000000000
     31554      4871  TIP3      H1             -4.8138740236        6.9060009985      -38.0015513303  TIP3      4735            0.0000000000
     31555      4871  TIP3      H2             -5.2139118483        8.3345184011      -38.2025720326  TIP3      4735            0.0000000000
     31556      4872  TIP3      OH2            -4.0787177475       22.9297969995      -40.6447607598  TIP3      4736            0.0000000000
     31557      4872  TIP3      H1             -3.3753089648       23.5058686345      -40.9798514551  TIP3      4736            0.0000000000
     31558      4872  TIP3      H2             -3.7438459993       22.0796124446      -40.9828847246  TIP3      4736            0.0000000000
     31559      4873  TIP3      OH2             2.6022741943       21.5053132314      -37.3822876687  TIP3      4737            0.0000000000
     31560      4873  TIP3      H1              3.0546649198       20.6886910928      -37.7014806025  TIP3      4737            0.0000000000
     31561      4873  TIP3      H2              3.0890545342       22.2497910427      -37.7866621413  TIP3      4737            0.0000000000
     31562      4874  TIP3      OH2           -11.7729014775        5.7024933248      -26.0629042356  TIP3      4738            0.0000000000
     31563      4874  TIP3      H1            -12.1842746076        4.8335079407      -25.8744970931  TIP3      4738            0.0000000000
     31564      4874  TIP3      H2            -10.9564390121        5.6138168558      -25.5219471396  TIP3      4738            0.0000000000
     31565      4875  TIP3      OH2            -9.8641476672        5.2475090163      -24.1875689269  TIP3      4739            0.0000000000
     31566      4875  TIP3      H1             -8.9426777271        5.2317191721      -24.4975783912  TIP3      4739            0.0000000000
     31567      4875  TIP3      H2             -9.9059809436        4.3681541036      -23.7795818386  TIP3      4739            0.0000000000
     31568      4876  TIP3      OH2           -10.0415926795       22.3410211768      -42.0609691067  TIP3      4740            0.0000000000
     31569      4876  TIP3      H1            -10.9488788519       22.5739098831      -42.3473234009  TIP3      4740            0.0000000000
     31570      4876  TIP3      H2            -10.2115694676       21.8412074354      -41.2537450055  TIP3      4740            0.0000000000
     31571      4877  TIP3      OH2            -1.0380388029        4.4724595648      -23.7079736586  TIP3      4741            0.0000000000
     31572      4877  TIP3      H1             -0.4668798873        4.6930536065      -22.9318599553  TIP3      4741            0.0000000000
     31573      4877  TIP3      H2             -0.3343512780        4.4342983040      -24.3911516474  TIP3      4741            0.0000000000
     31574      4878  TIP3      OH2             2.0956086565       20.7590058679      -25.4914246746  TIP3      4742            0.0000000000
     31575      4878  TIP3      H1              1.3940985040       20.5570057837      -26.1546693209  TIP3      4742            0.0000000000
     31576      4878  TIP3      H2              1.8342788545       21.6704073614      -25.2314022927  TIP3      4742            0.0000000000
     31577      4879  TIP3      OH2            16.8587579496       14.4628310488      -35.6606216983  TIP3      4743            0.0000000000
     31578      4879  TIP3      H1             16.5016037723       15.2735057596      -36.1153081036  TIP3      4743            0.0000000000
     31579      4879  TIP3      H2             16.3036212423       13.7736757811      -36.0631898982  TIP3      4743            0.0000000000
     31580      4880  TIP3      OH2            15.5881392833       13.1992594960      -32.3832580065  TIP3      4744            0.0000000000
     31581      4880  TIP3      H1             15.6099151363       12.8703608565      -31.4561648200  TIP3      4744            0.0000000000
     31582      4880  TIP3      H2             14.9469274014       12.5850534739      -32.7900212792  TIP3      4744            0.0000000000
     31583      4881  TIP3      OH2             7.8918265282       13.2153881704      -30.4533457011  TIP3      4745            0.0000000000
     31584      4881  TIP3      H1              7.8342985453       12.3801612016      -29.9604785984  TIP3      4745            0.0000000000
     31585      4881  TIP3      H2              8.4322057359       13.7570105344      -29.8458623638  TIP3      4745            0.0000000000
     31586      4882  TIP3      OH2            19.2745214672       16.4932427437      -33.2350531932  TIP3      4746            0.0000000000
     31587      4882  TIP3      H1             20.1009911977       16.0356335497      -33.0126907944  TIP3      4746            0.0000000000
     31588      4882  TIP3      H2             19.4072462526       17.3295793579      -32.7485700308  TIP3      4746            0.0000000000
     31589      4883  TIP3      OH2             8.6482027174       18.4511940781      -32.9806771398  TIP3      4747            0.0000000000
     31590      4883  TIP3      H1              8.3650552824       17.5298562458      -33.1089976324  TIP3      4747            0.0000000000
     31591      4883  TIP3      H2              9.5992723210       18.2451099566      -32.8336479146  TIP3      4747            0.0000000000
     31592      4884  TIP3      OH2             5.6721772638       10.9004288732      -36.7115296212  TIP3      4748            0.0000000000
     31593      4884  TIP3      H1              5.3930680845       11.8335694045      -36.6527180637  TIP3      4748            0.0000000000
     31594      4884  TIP3      H2              4.9219173831       10.5220720144      -37.1922896862  TIP3      4748            0.0000000000
     31595      4885  TIP3      OH2             5.6206604348       12.9445823107      -34.0955715944  TIP3      4749            0.0000000000
     31596      4885  TIP3      H1              6.0087647265       12.0657006270      -33.8753866175  TIP3      4749            0.0000000000
     31597      4885  TIP3      H2              6.3296727782       13.3556961741      -34.6056203508  TIP3      4749            0.0000000000
     31598      4886  TIP3      OH2            16.3658065693       21.6285216056      -33.8998736751  TIP3      4750            0.0000000000
     31599      4886  TIP3      H1             17.0406682098       21.0511389012      -34.3488907249  TIP3      4750            0.0000000000
     31600      4886  TIP3      H2             16.1070041010       21.0441669899      -33.1782341711  TIP3      4750            0.0000000000
     31601      4887  TIP3      OH2            13.4915920917       16.4468024337      -31.1158485401  TIP3      4751            0.0000000000
     31602      4887  TIP3      H1             13.7987877721       16.0258804009      -31.9254311635  TIP3      4751            0.0000000000
     31603      4887  TIP3      H2             14.3463902354       16.6137272963      -30.6590292542  TIP3      4751            0.0000000000
     31604      4888  TIP3      OH2            22.4634304020        7.5791361524      -31.4746227643  TIP3      4752            0.0000000000
     31605      4888  TIP3      H1             22.8014285306        7.7484575982      -30.5814748256  TIP3      4752            0.0000000000
     31606      4888  TIP3      H2             23.2584642423        7.7316375516      -32.0200818575  TIP3      4752            0.0000000000
     31607      4889  TIP3      OH2            17.6446492289       10.5900133872      -31.1074191801  TIP3      4753            0.0000000000
     31608      4889  TIP3      H1             17.7152485517        9.6591387919      -30.8126989774  TIP3      4753            0.0000000000
     31609      4889  TIP3      H2             17.6032834995       10.4168039438      -32.0708960194  TIP3      4753            0.0000000000
     31610      4890  TIP3      OH2            10.4527198208        8.1044625552      -34.4050142200  TIP3      4754            0.0000000000
     31611      4890  TIP3      H1             10.5569996819        8.9295193133      -34.9155444260  TIP3      4754            0.0000000000
     31612      4890  TIP3      H2              9.9168160402        7.5798733331      -35.0441751723  TIP3      4754            0.0000000000
     31613      4891  TIP3      OH2            17.7332896140        8.5297200108      -35.4809468005  TIP3      4755            0.0000000000
     31614      4891  TIP3      H1             18.3112140719        8.2601407124      -34.7345047337  TIP3      4755            0.0000000000
     31615      4891  TIP3      H2             18.0970546366        9.3935983961      -35.7204267155  TIP3      4755            0.0000000000
     31616      4892  TIP3      OH2             6.6871650803       10.3693280799      -33.5407311730  TIP3      4756            0.0000000000
     31617      4892  TIP3      H1              7.4112179855       10.2890768885      -32.8924025658  TIP3      4756            0.0000000000
     31618      4892  TIP3      H2              7.1579297323       10.0896232758      -34.3551365271  TIP3      4756            0.0000000000
     31619      4893  TIP3      OH2            11.5450314663       12.0239975438      -33.8684632691  TIP3      4757            0.0000000000
     31620      4893  TIP3      H1             12.3762942463       11.5519249421      -33.6514149979  TIP3      4757            0.0000000000
     31621      4893  TIP3      H2             11.1377934420       11.4442766067      -34.5473300853  TIP3      4757            0.0000000000
     31622      4894  TIP3      OH2            22.6755617529        8.5802210335      -28.5472400798  TIP3      4758            0.0000000000
     31623      4894  TIP3      H1             22.1508359148        9.3432538127      -28.8807972792  TIP3      4758            0.0000000000
     31624      4894  TIP3      H2             23.1047921920        9.0175852695      -27.7939164293  TIP3      4758            0.0000000000
     31625      4895  TIP3      OH2             9.1984410360        7.4179324732      -30.0716592748  TIP3      4759            0.0000000000
     31626      4895  TIP3      H1              8.8273589945        7.9521631893      -30.8046288369  TIP3      4759            0.0000000000
     31627      4895  TIP3      H2              8.6961222078        7.7741835712      -29.3272142293  TIP3      4759            0.0000000000
     31628      4896  TIP3      OH2            15.8869246359       16.6659701177      -36.6371172626  TIP3      4760            0.0000000000
     31629      4896  TIP3      H1             15.8555219015       16.8196741407      -37.5976383658  TIP3      4760            0.0000000000
     31630      4896  TIP3      H2             15.2394199255       17.3467443867      -36.3416408233  TIP3      4760            0.0000000000
     31631      4897  TIP3      OH2            11.3216981698       15.0545740376      -29.8697037915  TIP3      4761            0.0000000000
     31632      4897  TIP3      H1             10.6178137498       15.6918093371      -29.6469272989  TIP3      4761            0.0000000000
     31633      4897  TIP3      H2             11.9342302893       15.6453159603      -30.3515629719  TIP3      4761            0.0000000000
     31634      4898  TIP3      OH2            20.2251215594        8.6301070814      -33.2066106910  TIP3      4762            0.0000000000
     31635      4898  TIP3      H1             20.8692293073        7.9041987913      -33.2356803124  TIP3      4762            0.0000000000
     31636      4898  TIP3      H2             20.6109025979        9.1801347237      -32.4860578082  TIP3      4762            0.0000000000
     31637      4899  TIP3      OH2             8.9908360111        9.3010793570      -32.1668086406  TIP3      4763            0.0000000000
     31638      4899  TIP3      H1              9.6013218468        9.9397882828      -31.7223851059  TIP3      4763            0.0000000000
     31639      4899  TIP3      H2              9.5201450555        9.0299214781      -32.9492841593  TIP3      4763            0.0000000000
     31640      4900  TIP3      OH2            10.0129308604       17.4120104779      -29.2427170573  TIP3      4764            0.0000000000
     31641      4900  TIP3      H1              9.9472752844       18.2360841257      -29.7427257165  TIP3      4764            0.0000000000
     31642      4900  TIP3      H2              9.1658231695       17.4308349106      -28.7373541561  TIP3      4764            0.0000000000
     31643      4901  TIP3      OH2             5.8726453667       16.5497502715      -38.2347299167  TIP3      4765            0.0000000000
     31644      4901  TIP3      H1              5.9425338525       17.1016606541      -39.0340052594  TIP3      4765            0.0000000000
     31645      4901  TIP3      H2              6.2674018842       17.1651563710      -37.5727999263  TIP3      4765            0.0000000000
     31646      4902  TIP3      OH2            19.7526007562       18.6333177863      -31.5684123461  TIP3      4766            0.0000000000
     31647      4902  TIP3      H1             18.8006427021       18.8373756099      -31.4572649815  TIP3      4766            0.0000000000
     31648      4902  TIP3      H2             20.0474259245       19.5140753354      -31.8715219520  TIP3      4766            0.0000000000
     31649      4903  TIP3      OH2            20.0044643751        6.6258432220      -30.4717510546  TIP3      4767            0.0000000000
     31650      4903  TIP3      H1             19.2155613390        6.9468348569      -30.9517570913  TIP3      4767            0.0000000000
     31651      4903  TIP3      H2             20.7255292036        6.9692683535      -31.0450388047  TIP3      4767            0.0000000000
     31652      4904  TIP3      OH2            12.5391993833        4.5746698704      -32.5253805799  TIP3      4768            0.0000000000
     31653      4904  TIP3      H1             12.1302783642        3.7102415723      -32.3821130615  TIP3      4768            0.0000000000
     31654      4904  TIP3      H2             11.7282274149        5.1444514164      -32.4054855849  TIP3      4768            0.0000000000
     31655      4905  TIP3      OH2            18.2783715349       20.2084165823      -35.0508859885  TIP3      4769            0.0000000000
     31656      4905  TIP3      H1             18.4952165267       19.4422368780      -35.6336864175  TIP3      4769            0.0000000000
     31657      4905  TIP3      H2             19.0604184902       20.8004257342      -35.1783672726  TIP3      4769            0.0000000000
     31658      4906  TIP3      OH2            18.8048763521       18.0211881163      -36.4480507648  TIP3      4770            0.0000000000
     31659      4906  TIP3      H1             18.8458556871       17.4419312817      -37.2327810631  TIP3      4770            0.0000000000
     31660      4906  TIP3      H2             18.8893097232       17.3872750013      -35.7263410700  TIP3      4770            0.0000000000
     31661      4907  TIP3      OH2            20.5704325639       16.9780473766      -27.6092598078  TIP3      4771            0.0000000000
     31662      4907  TIP3      H1             20.8158728832       16.3336412459      -28.3196670737  TIP3      4771            0.0000000000
     31663      4907  TIP3      H2             20.6725818343       17.8214123106      -28.1088422128  TIP3      4771            0.0000000000
     31664      4908  TIP3      OH2            15.3206208297       13.4247383551      -38.1037807651  TIP3      4772            0.0000000000
     31665      4908  TIP3      H1             14.8052671640       14.2611842169      -38.1706237207  TIP3      4772            0.0000000000
     31666      4908  TIP3      H2             16.1546692189       13.6241261977      -38.5813680336  TIP3      4772            0.0000000000
     31667      4909  TIP3      OH2            15.4605155906       12.7323509066      -41.2324469677  TIP3      4773            0.0000000000
     31668      4909  TIP3      H1             16.1030003745       13.1755644002      -40.6634401758  TIP3      4773            0.0000000000
     31669      4909  TIP3      H2             15.5741621339       11.8096315688      -40.9649113344  TIP3      4773            0.0000000000
     31670      4910  TIP3      OH2            22.6784301125       13.3741491493      -29.4041375884  TIP3      4774            0.0000000000
     31671      4910  TIP3      H1             22.0048734915       14.0817110312      -29.4926335565  TIP3      4774            0.0000000000
     31672      4910  TIP3      H2             23.3300578977       13.6462277788      -30.0807433473  TIP3      4774            0.0000000000
     31673      4911  TIP3      OH2            19.2394027914       13.9620560889      -37.0818835075  TIP3      4775            0.0000000000
     31674      4911  TIP3      H1             18.4214042685       14.0550512619      -36.5482305283  TIP3      4775            0.0000000000
     31675      4911  TIP3      H2             19.8239060666       13.4777569366      -36.4565557684  TIP3      4775            0.0000000000
     31676      4912  TIP3      OH2            18.9602714844       11.9707857539      -27.7801973303  TIP3      4776            0.0000000000
     31677      4912  TIP3      H1             19.0588029584       12.8211526658      -27.3094246595  TIP3      4776            0.0000000000
     31678      4912  TIP3      H2             18.1970112492       12.1767009813      -28.3494956961  TIP3      4776            0.0000000000
     31679      4913  TIP3      OH2            10.6239111048       13.9661119505      -35.6381775941  TIP3      4777            0.0000000000
     31680      4913  TIP3      H1             10.4252768971       13.5010711847      -36.4729835137  TIP3      4777            0.0000000000
     31681      4913  TIP3      H2             11.2268317106       13.3479624828      -35.1819669035  TIP3      4777            0.0000000000
     31682      4914  TIP3      OH2            11.5359120960       17.6972415336      -32.6358377795  TIP3      4778            0.0000000000
     31683      4914  TIP3      H1             11.5838926027       17.3419002688      -33.5380701401  TIP3      4778            0.0000000000
     31684      4914  TIP3      H2             12.2706182283       17.2575394850      -32.1746293813  TIP3      4778            0.0000000000
     31685      4915  TIP3      OH2            10.6522229590       13.0489499525      -31.5477540198  TIP3      4779            0.0000000000
     31686      4915  TIP3      H1             10.9962838835       13.0131265331      -32.4711226089  TIP3      4779            0.0000000000
     31687      4915  TIP3      H2             11.1942314132       13.7242964139      -31.1040697777  TIP3      4779            0.0000000000
     31688      4916  TIP3      OH2            17.1251481480       18.9958741082      -30.8820880007  TIP3      4780            0.0000000000
     31689      4916  TIP3      H1             16.9274875561       19.7415165658      -30.2788535387  TIP3      4780            0.0000000000
     31690      4916  TIP3      H2             16.8883239589       18.2334625307      -30.3268592046  TIP3      4780            0.0000000000
     31691      4917  TIP3      OH2            11.4746128614       17.2835171248      -26.9518921495  TIP3      4781            0.0000000000
     31692      4917  TIP3      H1             10.9249989904       17.9796579692      -26.5237200723  TIP3      4781            0.0000000000
     31693      4917  TIP3      H2             11.0613584230       17.2464922171      -27.8431689169  TIP3      4781            0.0000000000
     31694      4918  TIP3      OH2            17.7208587984       13.2091852712      -39.2779564056  TIP3      4782            0.0000000000
     31695      4918  TIP3      H1             18.4308653529       13.4080687859      -38.6269068196  TIP3      4782            0.0000000000
     31696      4918  TIP3      H2             18.1283699568       13.6699902450      -40.0425047948  TIP3      4782            0.0000000000
     31697      4919  TIP3      OH2             8.7086848784       14.3836806526      -28.1856287000  TIP3      4783            0.0000000000
     31698      4919  TIP3      H1              9.0802297354       15.1450628325      -27.7159490292  TIP3      4783            0.0000000000
     31699      4919  TIP3      H2              8.2214828090       13.9389773540      -27.4688931481  TIP3      4783            0.0000000000
     31700      4920  TIP3      OH2            14.5883262562       19.0575013111      -36.3193042831  TIP3      4784            0.0000000000
     31701      4920  TIP3      H1             14.6235417215       19.8102097310      -35.7170396597  TIP3      4784            0.0000000000
     31702      4920  TIP3      H2             14.3812428156       19.4695158925      -37.1705822304  TIP3      4784            0.0000000000
     31703      4921  TIP3      OH2            10.3161550896       19.3556922986      -25.7181335115  TIP3      4785            0.0000000000
     31704      4921  TIP3      H1             10.1229798197       19.7365236598      -26.6069334511  TIP3      4785            0.0000000000
     31705      4921  TIP3      H2              9.4226226608       19.2014782318      -25.3734725864  TIP3      4785            0.0000000000
     31706      4922  TIP3      OH2            21.5058221159        4.6102925069      -39.1066094962  TIP3      4786            0.0000000000
     31707      4922  TIP3      H1             20.5767755406        4.8360279653      -38.8728805664  TIP3      4786            0.0000000000
     31708      4922  TIP3      H2             21.8205993662        5.4785267577      -39.4178992726  TIP3      4786            0.0000000000
     31709      4923  TIP3      OH2             9.5455758958       13.0068435451      -38.1026708184  TIP3      4787            0.0000000000
     31710      4923  TIP3      H1              8.9213368259       13.7576439399      -38.2377745979  TIP3      4787            0.0000000000
     31711      4923  TIP3      H2              8.9556648480       12.2448801421      -38.0544717121  TIP3      4787            0.0000000000
     31712      4924  TIP3      OH2            22.6254041173       19.0138417496      -40.7025237366  TIP3      4788            0.0000000000
     31713      4924  TIP3      H1             22.7950851059       19.9732470625      -40.6988833248  TIP3      4788            0.0000000000
     31714      4924  TIP3      H2             23.5318064362       18.6401533926      -40.7035362432  TIP3      4788            0.0000000000
     31715      4925  TIP3      OH2             5.7738885767       15.9908900657      -28.3281575970  TIP3      4789            0.0000000000
     31716      4925  TIP3      H1              5.4443128375       15.8618336391      -29.2258469360  TIP3      4789            0.0000000000
     31717      4925  TIP3      H2              6.3183411984       15.1830290407      -28.2813978447  TIP3      4789            0.0000000000
     31718      4926  TIP3      OH2             5.6744327094       18.5696448370      -32.0085112721  TIP3      4790            0.0000000000
     31719      4926  TIP3      H1              6.5553718344       18.2899770385      -32.3130938738  TIP3      4790            0.0000000000
     31720      4926  TIP3      H2              5.9535127820       19.0710662078      -31.2065050219  TIP3      4790            0.0000000000
     31721      4927  TIP3      OH2            23.3591824937       19.5129301173      -26.0102031767  TIP3      4791            0.0000000000
     31722      4927  TIP3      H1             23.4871753794       18.5797902384      -25.7875571107  TIP3      4791            0.0000000000
     31723      4927  TIP3      H2             22.4536084686       19.6257564396      -25.6485396277  TIP3      4791            0.0000000000
     31724      4928  TIP3      OH2            14.0861075890       18.8508537281      -27.3287557524  TIP3      4792            0.0000000000
     31725      4928  TIP3      H1             14.0839997704       19.6998688269      -26.8299137787  TIP3      4792            0.0000000000
     31726      4928  TIP3      H2             13.2129898078       18.4657963977      -27.1332167465  TIP3      4792            0.0000000000
     31727      4929  TIP3      OH2            14.5736815603       22.3770999466      -37.8273605354  TIP3      4793            0.0000000000
     31728      4929  TIP3      H1             14.6205024307       22.5132187350      -38.7954090454  TIP3      4793            0.0000000000
     31729      4929  TIP3      H2             14.7189357592       23.2759823401      -37.4671510700  TIP3      4793            0.0000000000
     31730      4930  TIP3      OH2             8.2258292788       21.4143943264      -35.6270590813  TIP3      4794            0.0000000000
     31731      4930  TIP3      H1              8.7194691959       21.3324530698      -34.7795278855  TIP3      4794            0.0000000000
     31732      4930  TIP3      H2              7.3416126616       21.0973426315      -35.3763689008  TIP3      4794            0.0000000000
     31733      4931  TIP3      OH2            17.7055768091       21.6177957361      -40.9004954531  TIP3      4795            0.0000000000
     31734      4931  TIP3      H1             18.3470748452       20.9316486781      -41.1867569759  TIP3      4795            0.0000000000
     31735      4931  TIP3      H2             18.1763324963       22.0496357557      -40.1616303265  TIP3      4795            0.0000000000
     31736      4932  TIP3      OH2            17.3791658784       21.9252568000      -37.4620509442  TIP3      4796            0.0000000000
     31737      4932  TIP3      H1             16.4153488325       21.8079973598      -37.3565013255  TIP3      4796            0.0000000000
     31738      4932  TIP3      H2             17.7187014136       21.0951117160      -37.1067893058  TIP3      4796            0.0000000000
     31739      4933  TIP3      OH2            20.0101200315       10.1716963949      -25.6330040485  TIP3      4797            0.0000000000
     31740      4933  TIP3      H1             20.0617018216       10.7622166960      -26.4012194124  TIP3      4797            0.0000000000
     31741      4933  TIP3      H2             20.1319422018        9.3005713810      -26.0612229792  TIP3      4797            0.0000000000
     31742      4934  TIP3      OH2             7.9975307889       17.5048593717      -27.5255018359  TIP3      4798            0.0000000000
     31743      4934  TIP3      H1              8.3281761467       17.0073681663      -26.7309129880  TIP3      4798            0.0000000000
     31744      4934  TIP3      H2              7.2127369133       16.9708535031      -27.7779181987  TIP3      4798            0.0000000000
     31745      4935  TIP3      OH2            10.3496795515        5.8991099613      -31.9290995734  TIP3      4799            0.0000000000
     31746      4935  TIP3      H1              9.4224718820        5.8123030520      -32.2510604814  TIP3      4799            0.0000000000
     31747      4935  TIP3      H2             10.2237024481        6.5276445026      -31.1922478061  TIP3      4799            0.0000000000
     31748      4936  TIP3      OH2            15.1875481335        5.1132110207      -28.7579728527  TIP3      4800            0.0000000000
     31749      4936  TIP3      H1             15.5725866876        4.8970070664      -27.8737037834  TIP3      4800            0.0000000000
     31750      4936  TIP3      H2             14.2347455322        5.2774658681      -28.5552966049  TIP3      4800            0.0000000000
     31751      4937  TIP3      OH2            18.0665474393        9.2947883734      -27.6563353819  TIP3      4801            0.0000000000
     31752      4937  TIP3      H1             17.3253560479        9.1296161291      -27.0224341416  TIP3      4801            0.0000000000
     31753      4937  TIP3      H2             18.2191341375       10.2550875062      -27.5644266151  TIP3      4801            0.0000000000
     31754      4938  TIP3      OH2            19.1342982850       14.4490916891      -41.1694235123  TIP3      4802            0.0000000000
     31755      4938  TIP3      H1             19.0836590877       14.5904569642      -42.1297233069  TIP3      4802            0.0000000000
     31756      4938  TIP3      H2             20.0573776359       14.7056307413      -40.9864962336  TIP3      4802            0.0000000000
     31757      4939  TIP3      OH2            14.8033042378        8.2456342110      -40.9671820162  TIP3      4803            0.0000000000
     31758      4939  TIP3      H1             14.3732921398        8.0217933121      -40.1184679835  TIP3      4803            0.0000000000
     31759      4939  TIP3      H2             14.8083446611        7.3852788752      -41.3945004582  TIP3      4803            0.0000000000
     31760      4940  TIP3      OH2            10.7119289143       10.5850600195      -30.5996409278  TIP3      4804            0.0000000000
     31761      4940  TIP3      H1             10.0106689237       10.7166014614      -29.9383153874  TIP3      4804            0.0000000000
     31762      4940  TIP3      H2             10.7327510105       11.4995625273      -30.9728820924  TIP3      4804            0.0000000000
     31763      4941  TIP3      OH2            10.5947836554       10.4380371693      -35.8470228631  TIP3      4805            0.0000000000
     31764      4941  TIP3      H1              9.6204981176       10.4865079712      -35.9840130133  TIP3      4805            0.0000000000
     31765      4941  TIP3      H2             10.8865968914       10.0770285343      -36.7173925622  TIP3      4805            0.0000000000
     31766      4942  TIP3      OH2            16.1572514173       11.7358771477      -36.2784920860  TIP3      4806            0.0000000000
     31767      4942  TIP3      H1             15.6732950921       12.2488588173      -36.9724642988  TIP3      4806            0.0000000000
     31768      4942  TIP3      H2             16.6696280778       11.1264018898      -36.8601789225  TIP3      4806            0.0000000000
     31769      4943  TIP3      OH2            14.5954693676       11.7787619767      -25.5590647315  TIP3      4807            0.0000000000
     31770      4943  TIP3      H1             14.4645456259       10.8304936154      -25.3315513002  TIP3      4807            0.0000000000
     31771      4943  TIP3      H2             15.4299282157       11.9717033520      -25.0905748103  TIP3      4807            0.0000000000
     31772      4944  TIP3      OH2            17.4396253215       10.9052049627      -33.8271852053  TIP3      4808            0.0000000000
     31773      4944  TIP3      H1             17.1480199412       11.6772881360      -34.3485757154  TIP3      4808            0.0000000000
     31774      4944  TIP3      H2             16.9520423509       10.2083895531      -34.2855912058  TIP3      4808            0.0000000000
     31775      4945  TIP3      OH2             7.9821122862       10.6549607378      -29.2388443792  TIP3      4809            0.0000000000
     31776      4945  TIP3      H1              8.5858974130       11.0384910354      -28.5639657487  TIP3      4809            0.0000000000
     31777      4945  TIP3      H2              7.6984368626        9.8455169601      -28.7636105674  TIP3      4809            0.0000000000
     31778      4946  TIP3      OH2            11.3689199630        8.5229597432      -41.6476414581  TIP3      4810            0.0000000000
     31779      4946  TIP3      H1             11.0737180251        7.9716545309      -40.8959128613  TIP3      4810            0.0000000000
     31780      4946  TIP3      H2             11.0685846429        9.4133041910      -41.3776864286  TIP3      4810            0.0000000000
     31781      4947  TIP3      OH2             5.0685209343        7.8314884698      -34.4656670857  TIP3      4811            0.0000000000
     31782      4947  TIP3      H1              5.6222991098        7.8118252917      -33.6574443960  TIP3      4811            0.0000000000
     31783      4947  TIP3      H2              5.5078443731        8.4837828745      -35.0282779922  TIP3      4811            0.0000000000
     31784      4948  TIP3      OH2             6.1374773547        8.4350480413      -39.3282485920  TIP3      4812            0.0000000000
     31785      4948  TIP3      H1              6.7208401205        8.8207403716      -40.0076285247  TIP3      4812            0.0000000000
     31786      4948  TIP3      H2              5.5061797157        9.1764518397      -39.1801998113  TIP3      4812            0.0000000000
     31787      4949  TIP3      OH2            16.3096958410       12.5547795690      -29.7115665874  TIP3      4813            0.0000000000
     31788      4949  TIP3      H1             16.8140422501       11.8364723637      -30.1554599635  TIP3      4813            0.0000000000
     31789      4949  TIP3      H2             15.7393829692       12.0186687777      -29.1179753368  TIP3      4813            0.0000000000
     31790      4950  TIP3      OH2            13.3119184269        8.0562278182      -34.3926136237  TIP3      4814            0.0000000000
     31791      4950  TIP3      H1             12.3469310718        8.0850834227      -34.2294344840  TIP3      4814            0.0000000000
     31792      4950  TIP3      H2             13.6391948470        7.5780907631      -33.5948133172  TIP3      4814            0.0000000000
     31793      4951  TIP3      OH2             7.9857253397        9.9252011774      -35.8956432941  TIP3      4815            0.0000000000
     31794      4951  TIP3      H1              7.2032066519       10.2288257276      -36.4156228110  TIP3      4815            0.0000000000
     31795      4951  TIP3      H2              8.0990540506        8.9933201128      -36.1834309394  TIP3      4815            0.0000000000
     31796      4952  TIP3      OH2            11.3562088169        9.7134424321      -38.2649300680  TIP3      4816            0.0000000000
     31797      4952  TIP3      H1             12.2920056048        9.9431518774      -38.1119719570  TIP3      4816            0.0000000000
     31798      4952  TIP3      H2             11.0761725402       10.4119178847      -38.8837665959  TIP3      4816            0.0000000000
     31799      4953  TIP3      OH2            17.6628895120        7.6254369952      -31.7100668555  TIP3      4817            0.0000000000
     31800      4953  TIP3      H1             17.1618979771        7.3641355128      -30.9017447858  TIP3      4817            0.0000000000
     31801      4953  TIP3      H2             17.4770983669        6.9098147967      -32.3351300827  TIP3      4817            0.0000000000
     31802      4954  TIP3      OH2            10.3246941248       11.0822782033      -41.0350566391  TIP3      4818            0.0000000000
     31803      4954  TIP3      H1             10.0092219663       11.0821690565      -41.9628716319  TIP3      4818            0.0000000000
     31804      4954  TIP3      H2             11.1779583908       11.5506753075      -41.1513381730  TIP3      4818            0.0000000000
     31805      4955  TIP3      OH2            20.1806661177       23.4715364673      -25.2217823433  TIP3      4819            0.0000000000
     31806      4955  TIP3      H1             20.7189167119       23.5803980506      -26.0350317014  TIP3      4819            0.0000000000
     31807      4955  TIP3      H2             20.3339260904       24.3529932679      -24.8424790863  TIP3      4819            0.0000000000
     31808      4956  TIP3      OH2             8.6032518371       15.8230294622      -25.5533298935  TIP3      4820            0.0000000000
     31809      4956  TIP3      H1              9.1559428034       16.0779079331      -24.7867418390  TIP3      4820            0.0000000000
     31810      4956  TIP3      H2              7.8039684799       15.4537197066      -25.1089845315  TIP3      4820            0.0000000000
     31811      4957  TIP3      OH2            13.9017434045       10.7445791406      -32.9302869625  TIP3      4821            0.0000000000
     31812      4957  TIP3      H1             14.7201497923       10.2855298160      -33.1878231163  TIP3      4821            0.0000000000
     31813      4957  TIP3      H2             13.4718285404       10.0971028765      -32.3385266578  TIP3      4821            0.0000000000
     31814      4958  TIP3      OH2             8.7844852616        7.3159456695      -36.3652682278  TIP3      4822            0.0000000000
     31815      4958  TIP3      H1              8.3141428607        6.4872639508      -36.1371109951  TIP3      4822            0.0000000000
     31816      4958  TIP3      H2              8.9141716130        7.2360397960      -37.3216311944  TIP3      4822            0.0000000000
     31817      4959  TIP3      OH2            12.8169502388        8.9474492415      -30.5411032201  TIP3      4823            0.0000000000
     31818      4959  TIP3      H1             12.0491953733        9.5544412648      -30.6538024558  TIP3      4823            0.0000000000
     31819      4959  TIP3      H2             13.4806048056        9.5359827402      -30.1526593628  TIP3      4823            0.0000000000
     31820      4960  TIP3      OH2            13.5492887448       15.4861714206      -38.2235060932  TIP3      4824            0.0000000000
     31821      4960  TIP3      H1             12.8065785859       14.9414531287      -38.5881828950  TIP3      4824            0.0000000000
     31822      4960  TIP3      H2             13.0970904142       15.8944599180      -37.4564324994  TIP3      4824            0.0000000000
     31823      4961  TIP3      OH2            20.8791249118       15.4727320403      -29.6884346539  TIP3      4825            0.0000000000
     31824      4961  TIP3      H1             21.1939968070       16.0056231303      -30.4497321476  TIP3      4825            0.0000000000
     31825      4961  TIP3      H2             20.0869494213       15.0887967964      -30.0981303425  TIP3      4825            0.0000000000
     31826      4962  TIP3      OH2            17.2285901794        8.6883926139      -39.6733014572  TIP3      4826            0.0000000000
     31827      4962  TIP3      H1             16.4828415992        8.8558168118      -40.2766496069  TIP3      4826            0.0000000000
     31828      4962  TIP3      H2             17.4178324836        9.5829699216      -39.3299100141  TIP3      4826            0.0000000000
     31829      4963  TIP3      OH2            14.5903316886       16.0882149423      -27.4857974024  TIP3      4827            0.0000000000
     31830      4963  TIP3      H1             14.1487709469       15.7465388858      -26.6875776561  TIP3      4827            0.0000000000
     31831      4963  TIP3      H2             14.7659274010       17.0116794403      -27.2375926392  TIP3      4827            0.0000000000
     31832      4964  TIP3      OH2            17.5967734009       10.7957963712      -38.2133358608  TIP3      4828            0.0000000000
     31833      4964  TIP3      H1             18.5359964870       10.5960354538      -37.9860697063  TIP3      4828            0.0000000000
     31834      4964  TIP3      H2             17.6541559631       11.7192643172      -38.5480936932  TIP3      4828            0.0000000000
     31835      4965  TIP3      OH2             8.6951802460       15.1881542486      -33.1049832987  TIP3      4829            0.0000000000
     31836      4965  TIP3      H1              8.9683917400       14.8580274963      -33.9753541432  TIP3      4829            0.0000000000
     31837      4965  TIP3      H2              8.9583982653       14.4540476326      -32.5251520658  TIP3      4829            0.0000000000
     31838      4966  TIP3      OH2            15.4944467627       16.7567660164      -39.5070748031  TIP3      4830            0.0000000000
     31839      4966  TIP3      H1             15.2976401746       17.6919749315      -39.2873171217  TIP3      4830            0.0000000000
     31840      4966  TIP3      H2             14.7432280315       16.2819145407      -39.0715246195  TIP3      4830            0.0000000000
     31841      4967  TIP3      OH2             6.0972978991       13.3050062146      -27.1704121690  TIP3      4831            0.0000000000
     31842      4967  TIP3      H1              5.6098243801       12.6333265926      -26.6499876637  TIP3      4831            0.0000000000
     31843      4967  TIP3      H2              5.5794475863       13.2312576313      -27.9945167557  TIP3      4831            0.0000000000
     31844      4968  TIP3      OH2            12.0856651927       13.0184110211      -25.7218872198  TIP3      4832            0.0000000000
     31845      4968  TIP3      H1             12.0750923993       12.6057033990      -26.5949111939  TIP3      4832            0.0000000000
     31846      4968  TIP3      H2             12.9520506917       12.6991710118      -25.3825034089  TIP3      4832            0.0000000000
     31847      4969  TIP3      OH2            17.3568261624       18.4540773946      -27.4634837862  TIP3      4833            0.0000000000
     31848      4969  TIP3      H1             16.4333432765       18.5930509298      -27.6927477885  TIP3      4833            0.0000000000
     31849      4969  TIP3      H2             17.3476911886       18.7927396159      -26.5477688810  TIP3      4833            0.0000000000
     31850      4970  TIP3      OH2            22.9177510835       10.4332664587      -38.8053916151  TIP3      4834            0.0000000000
     31851      4970  TIP3      H1             22.3665748088       10.2101777383      -39.5876313002  TIP3      4834            0.0000000000
     31852      4970  TIP3      H2             23.0325283590       11.3875607510      -38.9560278763  TIP3      4834            0.0000000000
     31853      4971  TIP3      OH2            22.8847447763       16.3284321809      -26.5070836044  TIP3      4835            0.0000000000
     31854      4971  TIP3      H1             22.0529935995       16.7187144159      -26.8696885666  TIP3      4835            0.0000000000
     31855      4971  TIP3      H2             23.4555974014       16.2774613864      -27.3087974760  TIP3      4835            0.0000000000
     31856      4972  TIP3      OH2            20.5254552017       19.7899742889      -38.8148203561  TIP3      4836            0.0000000000
     31857      4972  TIP3      H1             20.2421124362       19.0125046678      -38.3239654717  TIP3      4836            0.0000000000
     31858      4972  TIP3      H2             21.1182094406       19.4079971585      -39.4870698789  TIP3      4836            0.0000000000
     31859      4973  TIP3      OH2            18.6798684923       14.0002937841      -31.3278348649  TIP3      4837            0.0000000000
     31860      4973  TIP3      H1             18.1566452446       13.4624151803      -30.7088227905  TIP3      4837            0.0000000000
     31861      4973  TIP3      H2             19.1977231511       13.2943350098      -31.7939516572  TIP3      4837            0.0000000000
     31862      4974  TIP3      OH2            10.6845383558       18.3710129293      -35.3050023016  TIP3      4838            0.0000000000
     31863      4974  TIP3      H1             10.8806541385       19.2995904325      -35.5555156012  TIP3      4838            0.0000000000
     31864      4974  TIP3      H2              9.7661170993       18.2882426397      -35.6159242838  TIP3      4838            0.0000000000
     31865      4975  TIP3      OH2             6.8943799439       13.9316080840      -41.6461685880  TIP3      4839            0.0000000000
     31866      4975  TIP3      H1              7.2588218539       14.3683934075      -40.8502265819  TIP3      4839            0.0000000000
     31867      4975  TIP3      H2              6.1983630387       13.3863861704      -41.2375703809  TIP3      4839            0.0000000000
     31868      4976  TIP3      OH2            12.4049460819       16.2496186525      -35.6489107114  TIP3      4840            0.0000000000
     31869      4976  TIP3      H1             11.8475289862       17.0553622429      -35.6006974863  TIP3      4840            0.0000000000
     31870      4976  TIP3      H2             11.7714698754       15.5200033593      -35.5087750202  TIP3      4840            0.0000000000
     31871      4977  TIP3      OH2            12.8983340319       20.5606244636      -29.1861918945  TIP3      4841            0.0000000000
     31872      4977  TIP3      H1             13.6110159699       21.1353623013      -29.5227979432  TIP3      4841            0.0000000000
     31873      4977  TIP3      H2             13.4262725181       19.9581464599      -28.6167631984  TIP3      4841            0.0000000000
     31874      4978  TIP3      OH2            10.9267767756       20.9948731789      -36.3527286528  TIP3      4842            0.0000000000
     31875      4978  TIP3      H1              9.9758625997       21.1913936768      -36.2894366193  TIP3      4842            0.0000000000
     31876      4978  TIP3      H2             11.3033371559       21.8279507697      -35.9911724274  TIP3      4842            0.0000000000
     31877      4979  TIP3      OH2            15.9877119237       16.2493924412      -30.0012332664  TIP3      4843            0.0000000000
     31878      4979  TIP3      H1             15.5464520276       16.1320749364      -29.1268434040  TIP3      4843            0.0000000000
     31879      4979  TIP3      H2             16.7124587342       15.6092055406      -29.9113635470  TIP3      4843            0.0000000000
     31880      4980  TIP3      OH2            18.7032401423       17.6116462852      -40.4405050196  TIP3      4844            0.0000000000
     31881      4980  TIP3      H1             18.9481459865       17.1230254529      -39.6211591683  TIP3      4844            0.0000000000
     31882      4980  TIP3      H2             17.8086666677       17.2736815019      -40.5773029398  TIP3      4844            0.0000000000
     31883      4981  TIP3      OH2            19.0846488007       20.8374990639      -27.6874429623  TIP3      4845            0.0000000000
     31884      4981  TIP3      H1             18.2615876733       20.3134948943      -27.7996298509  TIP3      4845            0.0000000000
     31885      4981  TIP3      H2             19.0220965344       21.4733171068      -28.4268977196  TIP3      4845            0.0000000000
     31886      4982  TIP3      OH2            23.0150202496       21.8357348360      -40.5408285563  TIP3      4846            0.0000000000
     31887      4982  TIP3      H1             23.2775734027       21.9612273804      -41.4747760010  TIP3      4846            0.0000000000
     31888      4982  TIP3      H2             22.7887194842       22.7427477908      -40.2548340358  TIP3      4846            0.0000000000
     31889      4983  TIP3      OH2             7.6174659353        8.5147558085      -27.5818128521  TIP3      4847            0.0000000000
     31890      4983  TIP3      H1              6.8723440879        8.9221146132      -27.0962955967  TIP3      4847            0.0000000000
     31891      4983  TIP3      H2              7.5790820949        7.6244829978      -27.1998377837  TIP3      4847            0.0000000000
     31892      4984  TIP3      OH2            19.5027033739       16.2751238849      -38.3367503038  TIP3      4848            0.0000000000
     31893      4984  TIP3      H1             19.3384866995       15.3844209829      -37.9629631971  TIP3      4848            0.0000000000
     31894      4984  TIP3      H2             20.4855244746       16.2568453460      -38.3798111785  TIP3      4848            0.0000000000
     31895      4985  TIP3      OH2             6.6607137411       19.7790398251      -29.8219813823  TIP3      4849            0.0000000000
     31896      4985  TIP3      H1              7.4865257632       19.6230630827      -29.3287925269  TIP3      4849            0.0000000000
     31897      4985  TIP3      H2              6.1164768154       20.2532281370      -29.1676140192  TIP3      4849            0.0000000000
     31898      4986  TIP3      OH2            11.2699262056       17.9962625960      -40.0354272021  TIP3      4850            0.0000000000
     31899      4986  TIP3      H1             11.9396951720       17.5397132373      -39.5054936266  TIP3      4850            0.0000000000
     31900      4986  TIP3      H2             11.4564177056       18.9380759796      -39.8086106387  TIP3      4850            0.0000000000
     31901      4987  TIP3      OH2             7.8964579358       15.0755070408      -39.2105725954  TIP3      4851            0.0000000000
     31902      4987  TIP3      H1              7.1373931078       15.5232256596      -38.7732082156  TIP3      4851            0.0000000000
     31903      4987  TIP3      H2              8.4207312248       15.8236268537      -39.5506186561  TIP3      4851            0.0000000000
     31904      4988  TIP3      OH2            16.8309797640        7.1690777159      -29.2323333003  TIP3      4852            0.0000000000
     31905      4988  TIP3      H1             17.3288196013        7.5552049579      -28.4931374596  TIP3      4852            0.0000000000
     31906      4988  TIP3      H2             16.2815426359        6.4546526433      -28.8382251363  TIP3      4852            0.0000000000
     31907      4989  TIP3      OH2            16.5219163352        7.2030079990      -37.5846077005  TIP3      4853            0.0000000000
     31908      4989  TIP3      H1             16.7016515538        7.8008005729      -38.3498763826  TIP3      4853            0.0000000000
     31909      4989  TIP3      H2             17.1150417947        7.5850188944      -36.9053121050  TIP3      4853            0.0000000000
     31910      4990  TIP3      OH2            14.5484585844       19.4347447820      -39.1804178248  TIP3      4854            0.0000000000
     31911      4990  TIP3      H1             13.7105349000       19.9150271627      -39.3269244579  TIP3      4854            0.0000000000
     31912      4990  TIP3      H2             15.1785043586       19.9773733101      -39.6786067970  TIP3      4854            0.0000000000
     31913      4991  TIP3      OH2            14.0195777668        9.2748732299      -36.6662828313  TIP3      4855            0.0000000000
     31914      4991  TIP3      H1             14.3412308675       10.1526964933      -36.4116434909  TIP3      4855            0.0000000000
     31915      4991  TIP3      H2             13.8213522613        8.8459870883      -35.7977703715  TIP3      4855            0.0000000000
     31916      4992  TIP3      OH2            14.9395481053       10.6165852032      -28.0787712373  TIP3      4856            0.0000000000
     31917      4992  TIP3      H1             14.6825311784       11.1964642873      -27.3258917436  TIP3      4856            0.0000000000
     31918      4992  TIP3      H2             15.0106920715        9.7448968674      -27.6620270893  TIP3      4856            0.0000000000
     31919      4993  TIP3      OH2            14.6362782931        6.0122555808      -36.1252299637  TIP3      4857            0.0000000000
     31920      4993  TIP3      H1             14.3091287229        6.6555336412      -35.4698759468  TIP3      4857            0.0000000000
     31921      4993  TIP3      H2             15.3185543846        6.5541166939      -36.5827689511  TIP3      4857            0.0000000000
     31922      4994  TIP3      OH2            11.9909515710       20.5422899493      -39.4210905506  TIP3      4858            0.0000000000
     31923      4994  TIP3      H1             12.2991829820       21.4377634767      -39.6737373878  TIP3      4858            0.0000000000
     31924      4994  TIP3      H2             11.4716143106       20.7750340857      -38.6238799366  TIP3      4858            0.0000000000
     31925      4995  TIP3      OH2            10.4674081773        7.2029703181      -39.3527750586  TIP3      4859            0.0000000000
     31926      4995  TIP3      H1             10.5630831354        8.0282772246      -38.8485928091  TIP3      4859            0.0000000000
     31927      4995  TIP3      H2             11.2322682964        6.7079662367      -39.0107515130  TIP3      4859            0.0000000000
     31928      4996  TIP3      OH2            20.4748163475        7.7635261588      -26.9890902788  TIP3      4860            0.0000000000
     31929      4996  TIP3      H1             19.6115651083        7.8603171120      -27.4271118554  TIP3      4860            0.0000000000
     31930      4996  TIP3      H2             21.0689866466        7.6642756010      -27.7514035830  TIP3      4860            0.0000000000
     31931      4997  TIP3      OH2            19.7577509406       11.9987258963      -32.7466206909  TIP3      4861            0.0000000000
     31932      4997  TIP3      H1             19.0243510002       11.3633500167      -32.8614955211  TIP3      4861            0.0000000000
     31933      4997  TIP3      H2             20.4531747030       11.4259224912      -32.3609706684  TIP3      4861            0.0000000000
     31934      4998  TIP3      OH2             8.6708212137       17.8407539978      -40.8100538268  TIP3      4862            0.0000000000
     31935      4998  TIP3      H1              9.4371303600       18.0639962247      -40.2442421626  TIP3      4862            0.0000000000
     31936      4998  TIP3      H2              9.1552542365       17.4773933098      -41.5608801545  TIP3      4862            0.0000000000
     31937      4999  TIP3      OH2             7.0059702618       10.6499002386      -41.0755033411  TIP3      4863            0.0000000000
     31938      4999  TIP3      H1              7.5616444848       11.2700479493      -41.5673954166  TIP3      4863            0.0000000000
     31939      4999  TIP3      H2              6.1081697851       10.9050109710      -41.3375270213  TIP3      4863            0.0000000000
     31940      5000  TIP3      OH2            20.4488012077       21.3260554819      -31.7284070173  TIP3      4864            0.0000000000
     31941      5000  TIP3      H1             20.1727758586       21.9451818315      -32.4344784921  TIP3      4864            0.0000000000
     31942      5000  TIP3      H2             21.4131141287       21.4943329033      -31.7678537361  TIP3      4864            0.0000000000
     31943      5001  TIP3      OH2             7.8930910878        5.2989955750      -32.6473627574  TIP3      4865            0.0000000000
     31944      5001  TIP3      H1              7.8193762350        5.0619323038      -33.6102564339  TIP3      4865            0.0000000000
     31945      5001  TIP3      H2              7.5100269924        4.4623928983      -32.2983965239  TIP3      4865            0.0000000000
     31946      5002  TIP3      OH2             7.0027944645       18.5471415645      -36.8900372987  TIP3      4866            0.0000000000
     31947      5002  TIP3      H1              6.2244282258       18.8505598863      -36.4170055275  TIP3      4866            0.0000000000
     31948      5002  TIP3      H2              7.1311415801       19.3361338045      -37.4535244234  TIP3      4866            0.0000000000
     31949      5003  TIP3      OH2             5.6673601069       22.4155495981      -25.3318133218  TIP3      4867            0.0000000000
     31950      5003  TIP3      H1              6.5836289367       22.1184027465      -25.4576771537  TIP3      4867            0.0000000000
     31951      5003  TIP3      H2              5.1509050633       21.5947603161      -25.3866490562  TIP3      4867            0.0000000000
     31952      5004  TIP3      OH2            11.2379064304       20.8370465062      -23.5814778948  TIP3      4868            0.0000000000
     31953      5004  TIP3      H1             12.1658593128       21.0842932185      -23.7078155476  TIP3      4868            0.0000000000
     31954      5004  TIP3      H2             10.9698917800       20.5119113343      -24.4657968005  TIP3      4868            0.0000000000
     31955      5005  TIP3      OH2            16.9393665340       19.4937483341      -24.8825119775  TIP3      4869            0.0000000000
     31956      5005  TIP3      H1             16.6042943854       18.6417774744      -24.4922817585  TIP3      4869            0.0000000000
     31957      5005  TIP3      H2             17.7919270189       19.5460351636      -24.4058972093  TIP3      4869            0.0000000000
     31958      5006  TIP3      OH2            19.7570608494       19.8340129143      -42.1330790944  TIP3      4870            0.0000000000
     31959      5006  TIP3      H1             19.5827797008       19.2177586815      -41.3942322687  TIP3      4870            0.0000000000
     31960      5006  TIP3      H2             20.6626868619       19.5898243070      -42.3858985901  TIP3      4870            0.0000000000
     31961      5007  TIP3      OH2             6.2286401820       15.2070091527      -24.2753795934  TIP3      4871            0.0000000000
     31962      5007  TIP3      H1              5.9452167328       14.2929967264      -24.3878272932  TIP3      4871            0.0000000000
     31963      5007  TIP3      H2              5.5374676378       15.6505662169      -24.8080631373  TIP3      4871            0.0000000000
     31964      5008  TIP3      OH2            10.3154706012       15.7727104575      -42.1923859076  TIP3      4872            0.0000000000
     31965      5008  TIP3      H1             10.8580090415       15.9340351797      -41.4112101937  TIP3      4872            0.0000000000
     31966      5008  TIP3      H2             10.9968542495       15.4603249739      -42.8330171523  TIP3      4872            0.0000000000
     31967      5009  TIP3      OH2            12.6331314319       15.5414950265      -25.1897953760  TIP3      4873            0.0000000000
     31968      5009  TIP3      H1             12.2793913384       16.1248549648      -25.9009470829  TIP3      4873            0.0000000000
     31969      5009  TIP3      H2             12.3040031784       14.6392832826      -25.4284745947  TIP3      4873            0.0000000000
     31970      5010  TIP3      OH2            18.1834427154       15.6196105445      -27.4682579535  TIP3      4874            0.0000000000
     31971      5010  TIP3      H1             18.9540107456       16.2289017233      -27.5262704187  TIP3      4874            0.0000000000
     31972      5010  TIP3      H2             17.5145305855       16.2764541483      -27.2200365300  TIP3      4874            0.0000000000
     31973      5011  TIP3      OH2             7.6157009196       12.3225877630      -24.5049020825  TIP3      4875            0.0000000000
     31974      5011  TIP3      H1              7.1088161170       11.6868465779      -25.0250458055  TIP3      4875            0.0000000000
     31975      5011  TIP3      H2              7.9965546549       11.7668556903      -23.8148527644  TIP3      4875            0.0000000000
     31976      5012  TIP3      OH2            11.6443048200       14.0705223590      -39.3787249540  TIP3      4876            0.0000000000
     31977      5012  TIP3      H1             10.8543595852       13.5959853868      -39.0370701719  TIP3      4876            0.0000000000
     31978      5012  TIP3      H2             11.9426525089       13.5063619118      -40.1156442568  TIP3      4876            0.0000000000
     31979      5013  TIP3      OH2            10.2990481152       12.0521385712      -28.3138642909  TIP3      4877            0.0000000000
     31980      5013  TIP3      H1              9.9775804426       12.9730567490      -28.4027344820  TIP3      4877            0.0000000000
     31981      5013  TIP3      H2             11.2112490804       12.1741917636      -28.6514772449  TIP3      4877            0.0000000000
     31982      5014  TIP3      OH2            12.7495555812       12.3504957017      -41.4248892602  TIP3      4878            0.0000000000
     31983      5014  TIP3      H1             12.9227974938       13.0090886689      -42.1194024272  TIP3      4878            0.0000000000
     31984      5014  TIP3      H2             13.6864028018       12.1617346771      -41.1983863390  TIP3      4878            0.0000000000
     31985      5015  TIP3      OH2            16.3268387612       14.6585827494      -24.0945030639  TIP3      4879            0.0000000000
     31986      5015  TIP3      H1             17.2428258607       14.3942797356      -24.2681697382  TIP3      4879            0.0000000000
     31987      5015  TIP3      H2             15.9740573638       13.8779655655      -23.6168649771  TIP3      4879            0.0000000000
     31988      5016  TIP3      OH2            22.1791798331       14.8464598524      -42.4342092531  TIP3      4880            0.0000000000
     31989      5016  TIP3      H1             21.6369290357       15.0838815060      -43.2039494456  TIP3      4880            0.0000000000
     31990      5016  TIP3      H2             22.8775133056       15.5242964599      -42.4803920591  TIP3      4880            0.0000000000
     31991      5017  TIP3      OH2            11.8615429229        9.6194035516      -26.9082161019  TIP3      4881            0.0000000000
     31992      5017  TIP3      H1             11.7750876299        8.8438153882      -27.5051095884  TIP3      4881            0.0000000000
     31993      5017  TIP3      H2             11.6646099846       10.3560404774      -27.5077238149  TIP3      4881            0.0000000000
     31994      5018  TIP3      OH2            11.4626500498        7.5386724451      -28.6773560591  TIP3      4882            0.0000000000
     31995      5018  TIP3      H1             11.9470536081        7.9596473013      -29.4260034335  TIP3      4882            0.0000000000
     31996      5018  TIP3      H2             10.5876785526        7.3933840673      -29.1055107817  TIP3      4882            0.0000000000
     31997      5019  TIP3      OH2            12.8701211638       13.2444614045      -28.8413035670  TIP3      4883            0.0000000000
     31998      5019  TIP3      H1             13.7320132803       13.6548323820      -28.9883853020  TIP3      4883            0.0000000000
     31999      5019  TIP3      H2             12.2742716817       13.9510331009      -29.1907267396  TIP3      4883            0.0000000000
     32000      5020  TIP3      OH2            17.3253510944       10.7496886465      -24.0687080411  TIP3      4884            0.0000000000
     32001      5020  TIP3      H1             17.1461381662        9.8274185567      -23.8054806101  TIP3      4884            0.0000000000
     32002      5020  TIP3      H2             18.0755186965       10.6644735133      -24.6802346623  TIP3      4884            0.0000000000
     32003      5021  TIP3      OH2            18.9860311740       14.0955959068      -25.3368491019  TIP3      4885            0.0000000000
     32004      5021  TIP3      H1             18.6494339422       14.6316191446      -26.0926892219  TIP3      4885            0.0000000000
     32005      5021  TIP3      H2             19.9154793635       13.9644340383      -25.6294243295  TIP3      4885            0.0000000000
     32006      5022  TIP3      OH2            10.3044024472        9.8413615102      -24.6602682648  TIP3      4886            0.0000000000
     32007      5022  TIP3      H1              9.4654007092        9.4869904151      -24.9964666688  TIP3      4886            0.0000000000
     32008      5022  TIP3      H2             10.8782710261        9.7498280190      -25.4603223948  TIP3      4886            0.0000000000
     32009      5023  TIP3      OH2            12.4199457263        5.0666763067      -28.7255062672  TIP3      4887            0.0000000000
     32010      5023  TIP3      H1             12.0319663655        5.9597981094      -28.5731981456  TIP3      4887            0.0000000000
     32011      5023  TIP3      H2             11.6564288574        4.5453462554      -28.9869747674  TIP3      4887            0.0000000000
     32012      5024  TIP3      OH2            13.9171228331        9.1911984888      -24.6472839675  TIP3      4888            0.0000000000
     32013      5024  TIP3      H1             13.7647106823        8.8289685258      -23.7594616011  TIP3      4888            0.0000000000
     32014      5024  TIP3      H2             13.0644569055        9.0618646411      -25.0933587896  TIP3      4888            0.0000000000
     32015      5025  TIP3      OH2            16.2808391494        8.5876259750      -25.7917833948  TIP3      4889            0.0000000000
     32016      5025  TIP3      H1             15.4122885185        8.7461745562      -25.3643050840  TIP3      4889            0.0000000000
     32017      5025  TIP3      H2             16.6515667305        7.8945675936      -25.1893481223  TIP3      4889            0.0000000000
     32018      5026  TIP3      OH2            17.4741985970        6.9105183429      -24.0747513922  TIP3      4890            0.0000000000
     32019      5026  TIP3      H1             17.6663493034        5.9492757417      -23.9984340892  TIP3      4890            0.0000000000
     32020      5026  TIP3      H2             17.4717733564        7.1855566176      -23.1132137194  TIP3      4890            0.0000000000
     32021      5027  TIP3      OH2             7.8466565250        8.1768697535      -24.3576208874  TIP3      4891            0.0000000000
     32022      5027  TIP3      H1              7.6463438381        7.3269896075      -24.8064568538  TIP3      4891            0.0000000000
     32023      5027  TIP3      H2              8.0041387388        7.9025966010      -23.4324056119  TIP3      4891            0.0000000000
     32024      5028  TIP3      OH2            12.4432346277        4.7134808175      -25.9947792240  TIP3      4892            0.0000000000
     32025      5028  TIP3      H1             13.1797009871        4.0955324207      -25.8273939203  TIP3      4892            0.0000000000
     32026      5028  TIP3      H2             12.3442237494        4.6022851526      -26.9617346426  TIP3      4892            0.0000000000
     32027      5029  TIP3      OH2            12.5803786766        6.0253645509      -23.4318528315  TIP3      4893            0.0000000000
     32028      5029  TIP3      H1             12.6724866019        5.8129740270      -24.3821442067  TIP3      4893            0.0000000000
     32029      5029  TIP3      H2             11.9875558378        6.8038892891      -23.3968672308  TIP3      4893            0.0000000000
     32030      5030  TIP3      OH2            12.3142099676       23.1068030261      -40.5328967191  TIP3      4894            0.0000000000
     32031      5030  TIP3      H1             13.1607648715       23.4682438360      -40.2370968087  TIP3      4894            0.0000000000
     32032      5030  TIP3      H2             12.4241979322       23.1116063807      -41.5022980420  TIP3      4894            0.0000000000
     32033      5031  TIP3      OH2             6.0104438230       17.3800582427      -41.2480677945  TIP3      4895            0.0000000000
     32034      5031  TIP3      H1              6.9211324679       17.6942338023      -41.0428664703  TIP3      4895            0.0000000000
     32035      5031  TIP3      H2              6.1123349441       17.2463689703      -42.2130471830  TIP3      4895            0.0000000000
     32036      5032  TIP3      OH2             4.7601123796       22.9379273317      -35.9824203464  TIP3      4896            0.0000000000
     32037      5032  TIP3      H1              4.0538140229       22.3380564532      -36.2562782323  TIP3      4896            0.0000000000
     32038      5032  TIP3      H2              5.2504829247       22.3495671791      -35.3637449102  TIP3      4896            0.0000000000
     32039      5033  TIP3      OH2             5.6031338114       21.2396549501      -34.0492538355  TIP3      4897            0.0000000000
     32040      5033  TIP3      H1              4.7700131162       21.0190892379      -33.5991360361  TIP3      4897            0.0000000000
     32041      5033  TIP3      H2              6.1921307579       21.3542007568      -33.2715187312  TIP3      4897            0.0000000000
     32042      5034  TIP3      OH2            23.0376049186       22.0245700713      -31.5208507950  TIP3      4898            0.0000000000
     32043      5034  TIP3      H1             23.3435985712       21.5774820404      -30.7182133034  TIP3      4898            0.0000000000
     32044      5034  TIP3      H2             23.1900798106       22.9513682097      -31.2937185154  TIP3      4898            0.0000000000
     32045      5035  TIP3      OH2            22.6337200641       21.0804134624      -28.3937816828  TIP3      4899            0.0000000000
     32046      5035  TIP3      H1             22.1965433984       20.3103685843      -28.8174856226  TIP3      4899            0.0000000000
     32047      5035  TIP3      H2             22.9832805462       20.6863017085      -27.5654575545  TIP3      4899            0.0000000000
     32048      5036  TIP3      OH2            21.5885631955       17.5264585372      -23.3549397143  TIP3      4900            0.0000000000
     32049      5036  TIP3      H1             20.7781662112       17.3943363118      -22.8342548356  TIP3      4900            0.0000000000
     32050      5036  TIP3      H2             22.2805894054       17.5472705851      -22.6385849895  TIP3      4900            0.0000000000
     32051      5037  TIP3      OH2            22.1389739441       15.6629966209      -38.3485393806  TIP3      4901            0.0000000000
     32052      5037  TIP3      H1             23.0301949530       16.0383708273      -38.1470949894  TIP3      4901            0.0000000000
     32053      5037  TIP3      H2             22.0487897631       15.0220456730      -37.6164319574  TIP3      4901            0.0000000000
     32054      5038  TIP3      OH2            22.6618961255       13.3560865066      -36.4395965451  TIP3      4902            0.0000000000
     32055      5038  TIP3      H1             21.9909544889       12.8652706297      -35.8963110215  TIP3      4902            0.0000000000
     32056      5038  TIP3      H2             23.1879271107       13.7938532525      -35.7481590241  TIP3      4902            0.0000000000
     32057      5039  TIP3      OH2            22.2061378729       16.0963803276      -31.8944784979  TIP3      4903            0.0000000000
     32058      5039  TIP3      H1             22.9747442330       15.5023496353      -31.7544521253  TIP3      4903            0.0000000000
     32059      5039  TIP3      H2             22.6409941300       16.9695737822      -31.9752843684  TIP3      4903            0.0000000000
     32060      5040  TIP3      OH2            21.0407218330       19.1083690770      -29.2461392153  TIP3      4904            0.0000000000
     32061      5040  TIP3      H1             20.3472284482       19.7229657933      -28.9567010097  TIP3      4904            0.0000000000
     32062      5040  TIP3      H2             20.7108476547       18.8610018796      -30.1397678138  TIP3      4904            0.0000000000
     32063      5041  TIP3      OH2            23.1042942775       13.5477393485      -39.9111082503  TIP3      4905            0.0000000000
     32064      5041  TIP3      H1             22.6822829651       13.7789206158      -40.7574528270  TIP3      4905            0.0000000000
     32065      5041  TIP3      H2             22.7759681001       14.2652797934      -39.3302397548  TIP3      4905            0.0000000000
     32066      5042  TIP3      OH2            21.6313268309       10.1268347813      -41.6565331053  TIP3      4906            0.0000000000
     32067      5042  TIP3      H1             21.5550593750       10.3589860190      -42.6006470303  TIP3      4906            0.0000000000
     32068      5042  TIP3      H2             21.0512998193        9.3605781501      -41.5521820384  TIP3      4906            0.0000000000
     32069      5043  TIP3      OH2            20.5297459726       11.9234820244      -35.5397987909  TIP3      4907            0.0000000000
     32070      5043  TIP3      H1             20.2287926804       11.1035279416      -35.9799593088  TIP3      4907            0.0000000000
     32071      5043  TIP3      H2             20.4095855983       11.7315086666      -34.5878214747  TIP3      4907            0.0000000000
     32072      5044  TIP3      OH2             5.7183195117       14.1458973320      -31.6585402548  TIP3      4908            0.0000000000
     32073      5044  TIP3      H1              5.6309584784       13.7454222690      -32.5530926867  TIP3      4908            0.0000000000
     32074      5044  TIP3      H2              6.6606045411       13.9397026909      -31.4437261348  TIP3      4908            0.0000000000
     32075      5045  TIP3      OH2            21.5711614827       13.9485165797      -26.2353792444  TIP3      4909            0.0000000000
     32076      5045  TIP3      H1             22.0631351076       13.1546868649      -25.9019593550  TIP3      4909            0.0000000000
     32077      5045  TIP3      H2             22.2820119172       14.5825887589      -26.4585011687  TIP3      4909            0.0000000000
     32078      5046  TIP3      OH2            22.7913066440       11.8551991962      -25.2947700285  TIP3      4910            0.0000000000
     32079      5046  TIP3      H1             22.4236342180       11.2430494020      -24.6356620614  TIP3      4910            0.0000000000
     32080      5046  TIP3      H2             23.6220896964       11.3834928406      -25.5081230750  TIP3      4910            0.0000000000
     32081      5047  TIP3      OH2            20.0611238809        9.9600357502      -37.2966283415  TIP3      4911            0.0000000000
     32082      5047  TIP3      H1             20.1778853427        8.9884550487      -37.1722891512  TIP3      4911            0.0000000000
     32083      5047  TIP3      H2             20.9999450199       10.2014261582      -37.3162524069  TIP3      4911            0.0000000000
     32084      5048  TIP3      OH2            21.4167249438       10.3299164439      -31.4638679730  TIP3      4912            0.0000000000
     32085      5048  TIP3      H1             22.3955585091       10.3603558322      -31.4477261258  TIP3      4912            0.0000000000
     32086      5048  TIP3      H2             21.2575172780       10.6259235789      -30.5420326899  TIP3      4912            0.0000000000
     32087      5049  TIP3      OH2            21.3275470078       11.0170170031      -28.8228098271  TIP3      4913            0.0000000000
     32088      5049  TIP3      H1             20.4539339988       11.1827988988      -28.4196925587  TIP3      4913            0.0000000000
     32089      5049  TIP3      H2             21.7011681717       11.9254877737      -28.8654871565  TIP3      4913            0.0000000000
     32090      5050  TIP3      OH2             5.8126067449        9.3344882196      -25.4934649510  TIP3      4914            0.0000000000
     32091      5050  TIP3      H1              6.5858211797        8.8613390439      -25.1155453804  TIP3      4914            0.0000000000
     32092      5050  TIP3      H2              5.0697117714        8.7282832473      -25.2472863627  TIP3      4914            0.0000000000
     32093      5051  TIP3      OH2            23.9335305175        5.0063240102      -23.7332557905  TIP3      4915            0.0000000000
     32094      5051  TIP3      H1             23.9070905120        4.2297446299      -24.3194693796  TIP3      4915            0.0000000000
     32095      5051  TIP3      H2             23.9643353210        5.7333663079      -24.3821751492  TIP3      4915            0.0000000000
     32096      5052  TIP3      OH2            20.7527514898        7.3836549501      -36.8122174155  TIP3      4916            0.0000000000
     32097      5052  TIP3      H1             21.1255620505        6.8153819200      -36.1162718193  TIP3      4916            0.0000000000
     32098      5052  TIP3      H2             20.3760566007        6.7271957614      -37.4355953825  TIP3      4916            0.0000000000
     32099      5053  TIP3      OH2             6.8273260688        7.6158604141      -32.1259983636  TIP3      4917            0.0000000000
     32100      5053  TIP3      H1              7.1638635999        6.7010023565      -32.2787908402  TIP3      4917            0.0000000000
     32101      5053  TIP3      H2              7.6163123684        8.1767108054      -32.2525885735  TIP3      4917            0.0000000000
     32102      5054  TIP3      OH2             5.1980627483       10.6553510191      -31.3058648965  TIP3      4918            0.0000000000
     32103      5054  TIP3      H1              5.6102708452       10.3909891488      -32.1516533083  TIP3      4918            0.0000000000
     32104      5054  TIP3      H2              5.9759430307       10.8504972902      -30.7729007356  TIP3      4918            0.0000000000
     32105      5055  TIP3      OH2            23.2263786233        7.1019041798      -25.4325663143  TIP3      4919            0.0000000000
     32106      5055  TIP3      H1             22.4517165310        7.2293979867      -24.8456789818  TIP3      4919            0.0000000000
     32107      5055  TIP3      H2             22.7738755403        6.6165577001      -26.1431858834  TIP3      4919            0.0000000000
     32108      5056  TIP3      OH2            22.5875698212        7.3369033419      -40.5594238810  TIP3      4920            0.0000000000
     32109      5056  TIP3      H1             22.2493925398        6.7563251641      -41.2602211903  TIP3      4920            0.0000000000
     32110      5056  TIP3      H2             23.2795784185        7.8230810626      -41.0268940632  TIP3      4920            0.0000000000
     32111      5057  TIP3      OH2             5.0792659864        6.4758967206      -37.8153573280  TIP3      4921            0.0000000000
     32112      5057  TIP3      H1              4.1316507426        6.4238756537      -37.9612253910  TIP3      4921            0.0000000000
     32113      5057  TIP3      H2              5.3531601242        7.0928339622      -38.5291288546  TIP3      4921            0.0000000000
     32114      5058  TIP3      OH2            20.1497995955       22.0052409879      -35.4377908114  TIP3      4922            0.0000000000
     32115      5058  TIP3      H1             20.9062234805       22.0718767631      -36.0530193949  TIP3      4922            0.0000000000
     32116      5058  TIP3      H2             20.2957818512       22.7264305581      -34.7971482927  TIP3      4922            0.0000000000
     32117      5059  TIP3      OH2             4.8973624049        5.7239540368      -29.5937931836  TIP3      4923            0.0000000000
     32118      5059  TIP3      H1              4.3260152154        5.4372571424      -28.8547040791  TIP3      4923            0.0000000000
     32119      5059  TIP3      H2              4.3658141989        6.3729120272      -30.0960379192  TIP3      4923            0.0000000000
     32120      5060  TIP3      OH2             7.4308019994       18.6609938425      -24.7763022488  TIP3      4924            0.0000000000
     32121      5060  TIP3      H1              6.9188425716       18.2479594797      -25.4905969257  TIP3      4924            0.0000000000
     32122      5060  TIP3      H2              7.1270885668       19.5759287552      -24.8151855621  TIP3      4924            0.0000000000
     32123      5061  TIP3      OH2            10.3079845738       20.4534771898      -28.3565067186  TIP3      4925            0.0000000000
     32124      5061  TIP3      H1             10.0773799882       21.3027841009      -28.8008660735  TIP3      4925            0.0000000000
     32125      5061  TIP3      H2             11.2392240336       20.3627605765      -28.6594244421  TIP3      4925            0.0000000000
     32126      5062  TIP3      OH2            14.1707708614       21.2591365252      -26.1624239556  TIP3      4926            0.0000000000
     32127      5062  TIP3      H1             14.2701663287       21.0753362206      -25.2009361206  TIP3      4926            0.0000000000
     32128      5062  TIP3      H2             15.0589885306       21.6632652534      -26.3241662268  TIP3      4926            0.0000000000
     32129      5063  TIP3      OH2            16.4436622716       22.5959375276      -26.5300946431  TIP3      4927            0.0000000000
     32130      5063  TIP3      H1             17.1675149063       22.6442057777      -27.1765278956  TIP3      4927            0.0000000000
     32131      5063  TIP3      H2             16.6882411594       23.2686416660      -25.8718989158  TIP3      4927            0.0000000000
     32132      5064  TIP3      OH2            22.0107692720        4.7860028008      -27.3630026064  TIP3      4928            0.0000000000
     32133      5064  TIP3      H1             21.3932327445        5.2119866004      -27.9732319047  TIP3      4928            0.0000000000
     32134      5064  TIP3      H2             22.1534995405        3.9246362677      -27.8219496326  TIP3      4928            0.0000000000
     32135      5065  TIP3      OH2             7.2961597621       23.3448608011      -28.7610628525  TIP3      4929            0.0000000000
     32136      5065  TIP3      H1              6.5777467617       23.9092388760      -29.1134744265  TIP3      4929            0.0000000000
     32137      5065  TIP3      H2              7.3704631070       23.7183194095      -27.8605104013  TIP3      4929            0.0000000000
     32138      5066  TIP3      OH2             9.6318372155       22.6461889988      -29.8304636014  TIP3      4930            0.0000000000
     32139      5066  TIP3      H1              8.7114749138       22.8796564853      -29.5597898893  TIP3      4930            0.0000000000
     32140      5066  TIP3      H2              9.7651766494       23.1816274758      -30.6336098259  TIP3      4930            0.0000000000
     32141      5067  TIP3      OH2            14.7044861991       22.4419838393      -30.7803783575  TIP3      4931            0.0000000000
     32142      5067  TIP3      H1             13.9727005920       22.9164181344      -31.2122524192  TIP3      4931            0.0000000000
     32143      5067  TIP3      H2             14.8254206409       23.0106441360      -29.9896239089  TIP3      4931            0.0000000000
     32144      5068  TIP3      OH2            16.7096100071       21.1846889446      -29.3426145149  TIP3      4932            0.0000000000
     32145      5068  TIP3      H1             16.0718779340       21.4953502673      -30.0239333560  TIP3      4932            0.0000000000
     32146      5068  TIP3      H2             17.4335717644       21.8274826872      -29.5086511779  TIP3      4932            0.0000000000
     32147      5069  TIP3      OH2            18.9664192139       22.7473978163      -29.6585002232  TIP3      4933            0.0000000000
     32148      5069  TIP3      H1             19.5353318317       23.5201413515      -29.4777977290  TIP3      4933            0.0000000000
     32149      5069  TIP3      H2             19.3872209925       22.4394731377      -30.4900926051  TIP3      4933            0.0000000000
     32150      5070  TIP3      OH2             7.0950174956       21.6388558670      -31.7793503780  TIP3      4934            0.0000000000
     32151      5070  TIP3      H1              6.9151884653       20.9572776271      -31.0909239203  TIP3      4934            0.0000000000
     32152      5070  TIP3      H2              8.0624879695       21.5159295988      -31.8924784723  TIP3      4934            0.0000000000
     32153      5071  TIP3      OH2             9.4819559928       21.0626959260      -33.2961746464  TIP3      4935            0.0000000000
     32154      5071  TIP3      H1              9.0046282164       20.2095985706      -33.2504668546  TIP3      4935            0.0000000000
     32155      5071  TIP3      H2             10.2547692724       20.8254525156      -32.7236278997  TIP3      4935            0.0000000000
     32156      5072  TIP3      OH2            11.3451750077       20.4741424342      -31.5214652862  TIP3      4936            0.0000000000
     32157      5072  TIP3      H1             11.8152012337       19.6484514633      -31.7555899169  TIP3      4936            0.0000000000
     32158      5072  TIP3      H2             11.7191945036       20.6693873877      -30.6400497276  TIP3      4936            0.0000000000
     32159      5073  TIP3      OH2            14.4588832875        6.3195281650      -32.7418990762  TIP3      4937            0.0000000000
     32160      5073  TIP3      H1             13.7505043147        5.6295329877      -32.6508667364  TIP3      4937            0.0000000000
     32161      5073  TIP3      H2             15.2607348764        5.7925859440      -32.7270681227  TIP3      4937            0.0000000000
     32162      5074  TIP3      OH2            20.5248255602        4.6485120654      -33.1756946833  TIP3      4938            0.0000000000
     32163      5074  TIP3      H1             21.1609630391        5.2274041809      -33.6619488738  TIP3      4938            0.0000000000
     32164      5074  TIP3      H2             19.6504766836        4.9026445155      -33.5536676528  TIP3      4938            0.0000000000
     32165      5075  TIP3      OH2            22.2166723283        5.7814654988      -34.9471845427  TIP3      4939            0.0000000000
     32166      5075  TIP3      H1             22.7653183933        5.1112352701      -35.4208157740  TIP3      4939            0.0000000000
     32167      5075  TIP3      H2             22.8561580504        6.5338299532      -34.8690494848  TIP3      4939            0.0000000000
     32168      5076  TIP3      OH2             7.3859442536        4.5976775720      -35.1304901885  TIP3      4940            0.0000000000
     32169      5076  TIP3      H1              6.6258344413        4.5827664077      -35.7474570817  TIP3      4940            0.0000000000
     32170      5076  TIP3      H2              7.8881882169        3.8092359644      -35.4406246274  TIP3      4940            0.0000000000
     32171      5077  TIP3      OH2             6.9928606805        4.9726821521      -39.1331862312  TIP3      4941            0.0000000000
     32172      5077  TIP3      H1              7.2081007453        5.4874133638      -39.9408137415  TIP3      4941            0.0000000000
     32173      5077  TIP3      H2              6.2562455022        5.4943554704      -38.7468794854  TIP3      4941            0.0000000000
     32174      5078  TIP3      OH2            12.0013498552        4.5299641540      -35.3122324021  TIP3      4942            0.0000000000
     32175      5078  TIP3      H1             12.7387212285        4.8838142198      -35.8304650805  TIP3      4942            0.0000000000
     32176      5078  TIP3      H2             12.2979924083        4.7218087806      -34.4086721437  TIP3      4942            0.0000000000
     32177      5079  TIP3      OH2            17.9182664342        5.1006956058      -34.5067532290  TIP3      4943            0.0000000000
     32178      5079  TIP3      H1             17.4290691558        5.3680607574      -35.2963016024  TIP3      4943            0.0000000000
     32179      5079  TIP3      H2             17.3665591661        4.3568310764      -34.1598275537  TIP3      4943            0.0000000000
     32180      5080  TIP3      OH2            19.1849337157        5.5469248553      -38.2471356806  TIP3      4944            0.0000000000
     32181      5080  TIP3      H1             18.3144835877        5.9738369594      -38.3097173452  TIP3      4944            0.0000000000
     32182      5080  TIP3      H2             18.8984901209        4.6746106126      -37.9042514649  TIP3      4944            0.0000000000
     32183      5081  TIP3      OH2             6.2061076186       20.9318895080      -38.3686377876  TIP3      4945            0.0000000000
     32184      5081  TIP3      H1              5.3836561955       20.9339386245      -38.8926977113  TIP3      4945            0.0000000000
     32185      5081  TIP3      H2              6.5352104493       21.8104369153      -38.6336425651  TIP3      4945            0.0000000000
     32186      5082  TIP3      OH2             8.1782749347        6.2034209224      -41.2173561146  TIP3      4946            0.0000000000
     32187      5082  TIP3      H1              8.9056673286        5.5774322551      -41.0652583647  TIP3      4946            0.0000000000
     32188      5082  TIP3      H2              8.6072480090        7.0431871499      -41.0229897834  TIP3      4946            0.0000000000
     32189      5083  TIP3      OH2            13.4764752913        7.2996953270      -38.6244066353  TIP3      4947            0.0000000000
     32190      5083  TIP3      H1             13.9695679688        6.6993113051      -38.0489866266  TIP3      4947            0.0000000000
     32191      5083  TIP3      H2             13.5901914753        8.1242012353      -38.1031750304  TIP3      4947            0.0000000000
     32192      5084  TIP3      OH2            14.9641904559       22.2994403603      -40.5121130655  TIP3      4948            0.0000000000
     32193      5084  TIP3      H1             15.9424237590       22.2425755575      -40.5212628155  TIP3      4948            0.0000000000
     32194      5084  TIP3      H2             14.7625747780       21.5858959884      -41.1450306879  TIP3      4948            0.0000000000
     32195      5085  TIP3      OH2            21.9690835655       21.6755101412      -37.5219374558  TIP3      4949            0.0000000000
     32196      5085  TIP3      H1             21.5146039486       20.9944653025      -38.0781848581  TIP3      4949            0.0000000000
     32197      5085  TIP3      H2             21.9052110210       22.4455500224      -38.1238706464  TIP3      4949            0.0000000000
     32198      5086  TIP3      OH2             7.1701043795        5.9981414499      -25.9733109888  TIP3      4950            0.0000000000
     32199      5086  TIP3      H1              6.5324053169        5.2489335979      -25.9460982064  TIP3      4950            0.0000000000
     32200      5086  TIP3      H2              7.9708474595        5.5582121497      -25.6381017728  TIP3      4950            0.0000000000
     32201      5087  TIP3      OH2             9.8223363928        4.9891348530      -23.5137109398  TIP3      4951            0.0000000000
     32202      5087  TIP3      H1             10.7234378875        5.2476176938      -23.7747015429  TIP3      4951            0.0000000000
     32203      5087  TIP3      H2             10.0517363312        4.1365890305      -23.1107489532  TIP3      4951            0.0000000000
     32204      5088  TIP3      OH2             8.3657502868       22.8960359081      -41.4352945827  TIP3      4952            0.0000000000
     32205      5088  TIP3      H1              7.8207300474       23.2765427520      -40.7165013625  TIP3      4952            0.0000000000
     32206      5088  TIP3      H2              8.3062630055       21.9539806952      -41.2123119153  TIP3      4952            0.0000000000
     32207      5089  TIP3      OH2            18.0919181052        4.3390405434      -24.0138135494  TIP3      4953            0.0000000000
     32208      5089  TIP3      H1             18.2901304963        4.4072047998      -23.0506876953  TIP3      4953            0.0000000000
     32209      5089  TIP3      H2             18.9597260791        4.0218798676      -24.3361405664  TIP3      4953            0.0000000000
     32210      5090  TIP3      OH2            20.8861207722       20.6675861945      -25.6759240085  TIP3      4954            0.0000000000
     32211      5090  TIP3      H1             20.4493210651       20.5112933064      -26.5463496204  TIP3      4954            0.0000000000
     32212      5090  TIP3      H2             20.7069375973       21.6184950159      -25.5634452042  TIP3      4954            0.0000000000
     32213      5091  TIP3      OH2            26.5330434737       13.0884626451      -29.9994708093  TIP3      4955            0.0000000000
     32214      5091  TIP3      H1             26.4602277888       12.1923445338      -29.6229368804  TIP3      4955            0.0000000000
     32215      5091  TIP3      H2             27.1453114545       13.5202129258      -29.3711739709  TIP3      4955            0.0000000000
     32216      5092  TIP3      OH2            27.5898335599       17.8906835483      -32.3200078067  TIP3      4956            0.0000000000
     32217      5092  TIP3      H1             27.3311832020       16.9552258297      -32.4571720926  TIP3      4956            0.0000000000
     32218      5092  TIP3      H2             28.5580417166       17.8088520353      -32.4562156233  TIP3      4956            0.0000000000
     32219      5093  TIP3      OH2            24.3960292953       11.1634784228      -36.4584548872  TIP3      4957            0.0000000000
     32220      5093  TIP3      H1             23.8872822140       11.9666290492      -36.2500003598  TIP3      4957            0.0000000000
     32221      5093  TIP3      H2             23.9034966876       10.8427209054      -37.2389379793  TIP3      4957            0.0000000000
     32222      5094  TIP3      OH2            24.2700406585       13.0905976719      -33.9298633893  TIP3      4958            0.0000000000
     32223      5094  TIP3      H1             24.6694857725       12.1950344902      -33.8406102567  TIP3      4958            0.0000000000
     32224      5094  TIP3      H2             25.0615064263       13.6514224276      -34.0145183946  TIP3      4958            0.0000000000
     32225      5095  TIP3      OH2            32.7436935561       16.2661260035      -30.7069590099  TIP3      4959            0.0000000000
     32226      5095  TIP3      H1             33.3986766947       15.5771118064      -30.9712256823  TIP3      4959            0.0000000000
     32227      5095  TIP3      H2             33.1110742766       17.0830536820      -31.0876732276  TIP3      4959            0.0000000000
     32228      5096  TIP3      OH2            28.8729152755        8.3212507513      -34.2874589320  TIP3      4960            0.0000000000
     32229      5096  TIP3      H1             28.9835563695        9.0989165987      -34.8800703372  TIP3      4960            0.0000000000
     32230      5096  TIP3      H2             28.5102013764        7.6621942445      -34.9240563101  TIP3      4960            0.0000000000
     32231      5097  TIP3      OH2            25.8441025949       10.7344927516      -33.1649917522  TIP3      4961            0.0000000000
     32232      5097  TIP3      H1             26.4907596082       10.4132989667      -32.5147706874  TIP3      4961            0.0000000000
     32233      5097  TIP3      H2             26.2443506359       10.4257735817      -34.0040050765  TIP3      4961            0.0000000000
     32234      5098  TIP3      OH2            29.7436199534       12.4710489795      -34.0724636432  TIP3      4962            0.0000000000
     32235      5098  TIP3      H1             30.5826398249       12.0568171033      -33.7583490358  TIP3      4962            0.0000000000
     32236      5098  TIP3      H2             29.4493879971       11.7541585673      -34.6814719745  TIP3      4962            0.0000000000
     32237      5099  TIP3      OH2            27.8344299108        7.2330311884      -29.8563004443  TIP3      4963            0.0000000000
     32238      5099  TIP3      H1             27.5788675194        7.7856535498      -30.6257852629  TIP3      4963            0.0000000000
     32239      5099  TIP3      H2             27.1936584544        7.5460587200      -29.1926524386  TIP3      4963            0.0000000000
     32240      5100  TIP3      OH2            30.3249887931       14.8257384170      -30.0136925734  TIP3      4964            0.0000000000
     32241      5100  TIP3      H1             29.6295228303       15.4558545279      -29.7015110474  TIP3      4964            0.0000000000
     32242      5100  TIP3      H2             31.0445784037       15.4551110354      -30.2432504116  TIP3      4964            0.0000000000
     32243      5101  TIP3      OH2            27.9580403128        9.2969693645      -31.8241417778  TIP3      4965            0.0000000000
     32244      5101  TIP3      H1             28.7013831286        9.6961693200      -31.3223780404  TIP3      4965            0.0000000000
     32245      5101  TIP3      H2             28.3893826711        9.0087483299      -32.6656772118  TIP3      4965            0.0000000000
     32246      5102  TIP3      OH2            28.8138301618       17.0475724403      -29.2784974129  TIP3      4966            0.0000000000
     32247      5102  TIP3      H1             28.6312469330       17.5140706176      -30.1110942460  TIP3      4966            0.0000000000
     32248      5102  TIP3      H2             27.9751071715       17.2150483063      -28.7905148823  TIP3      4966            0.0000000000
     32249      5103  TIP3      OH2            24.6399198301       16.5744496785      -38.1268855025  TIP3      4967            0.0000000000
     32250      5103  TIP3      H1             24.6271213420       17.0227851895      -39.0054175942  TIP3      4967            0.0000000000
     32251      5103  TIP3      H2             24.8373828317       17.3546447337      -37.5424062164  TIP3      4967            0.0000000000
     32252      5104  TIP3      OH2            31.6781184516        4.8658924545      -32.4352276100  TIP3      4968            0.0000000000
     32253      5104  TIP3      H1             32.0498517762        4.6262716558      -31.5791163155  TIP3      4968            0.0000000000
     32254      5104  TIP3      H2             30.8063488698        5.2527808608      -32.1798901919  TIP3      4968            0.0000000000
     32255      5105  TIP3      OH2            28.9107208127       14.8758897957      -35.1105921980  TIP3      4969            0.0000000000
     32256      5105  TIP3      H1             28.7168316315       14.6125823224      -36.0266054072  TIP3      4969            0.0000000000
     32257      5105  TIP3      H2             29.1658489715       14.0082010508      -34.7213782378  TIP3      4969            0.0000000000
     32258      5106  TIP3      OH2            30.3614918352       17.2966220927      -32.4447867665  TIP3      4970            0.0000000000
     32259      5106  TIP3      H1             30.5090144243       17.1578463237      -33.3943225844  TIP3      4970            0.0000000000
     32260      5106  TIP3      H2             31.1961245798       16.9957292934      -32.0488876393  TIP3      4970            0.0000000000
     32261      5107  TIP3      OH2            29.3223084327       12.8341522086      -31.4114760174  TIP3      4971            0.0000000000
     32262      5107  TIP3      H1             29.5252780149       12.9185383559      -32.3662957815  TIP3      4971            0.0000000000
     32263      5107  TIP3      H2             29.7394267296       13.6359732778      -31.0246755044  TIP3      4971            0.0000000000
     32264      5108  TIP3      OH2            30.6414467855       17.0122703749      -27.2290244552  TIP3      4972            0.0000000000
     32265      5108  TIP3      H1             30.2675286893       17.8068481076      -26.7811869277  TIP3      4972            0.0000000000
     32266      5108  TIP3      H2             30.0613121260       16.9898137311      -28.0237054175  TIP3      4972            0.0000000000
     32267      5109  TIP3      OH2            27.5060537924       14.0660756286      -27.6863000269  TIP3      4973            0.0000000000
     32268      5109  TIP3      H1             27.6625413831       14.5921429927      -26.8906932918  TIP3      4973            0.0000000000
     32269      5109  TIP3      H2             26.6724001887       13.6131564259      -27.4425596705  TIP3      4973            0.0000000000
     32270      5110  TIP3      OH2            29.3304991175       19.0301284447      -25.9210394464  TIP3      4974            0.0000000000
     32271      5110  TIP3      H1             29.1298982639       19.4597865784      -26.7832646219  TIP3      4974            0.0000000000
     32272      5110  TIP3      H2             28.4446111659       19.0001243392      -25.4951695430  TIP3      4974            0.0000000000
     32273      5111  TIP3      OH2            28.2646062185       13.2400418819      -37.7580662242  TIP3      4975            0.0000000000
     32274      5111  TIP3      H1             27.8052247406       14.0685104637      -38.0553384065  TIP3      4975            0.0000000000
     32275      5111  TIP3      H2             27.5538862637       12.5881892764      -37.7456443417  TIP3      4975            0.0000000000
     32276      5112  TIP3      OH2            24.5146416406       15.8507335300      -28.6080486250  TIP3      4976            0.0000000000
     32277      5112  TIP3      H1             24.1231181716       15.8104971870      -29.4899930390  TIP3      4976            0.0000000000
     32278      5112  TIP3      H2             24.9380685626       14.9752637407      -28.5774481839  TIP3      4976            0.0000000000
     32279      5113  TIP3      OH2            24.5267330654       18.5484306149      -31.8161193468  TIP3      4977            0.0000000000
     32280      5113  TIP3      H1             25.3157907123       18.1565552786      -32.2171798815  TIP3      4977            0.0000000000
     32281      5113  TIP3      H2             24.9063791178       19.0715353970      -31.0902234923  TIP3      4977            0.0000000000
     32282      5114  TIP3      OH2            27.3530127056       21.3048146264      -35.6260181913  TIP3      4978            0.0000000000
     32283      5114  TIP3      H1             27.7664017117       21.1506352991      -34.7362864217  TIP3      4978            0.0000000000
     32284      5114  TIP3      H2             26.4578076275       20.9709105539      -35.4489126300  TIP3      4978            0.0000000000
     32285      5115  TIP3      OH2            26.4711944356       17.4557920620      -27.8794952795  TIP3      4979            0.0000000000
     32286      5115  TIP3      H1             26.6836968033       16.9301131775      -27.0776327299  TIP3      4979            0.0000000000
     32287      5115  TIP3      H2             25.6519672744       16.9833024217      -28.1545639876  TIP3      4979            0.0000000000
     32288      5116  TIP3      OH2            29.3241777229        5.8204756114      -31.5537594734  TIP3      4980            0.0000000000
     32289      5116  TIP3      H1             28.4696150480        5.7425615887      -32.0296419850  TIP3      4980            0.0000000000
     32290      5116  TIP3      H2             29.0119743201        6.2278391644      -30.7229399240  TIP3      4980            0.0000000000
     32291      5117  TIP3      OH2            29.6167983783       10.5720640691      -29.9443989729  TIP3      4981            0.0000000000
     32292      5117  TIP3      H1             28.6810306062       10.4958756324      -29.6412702873  TIP3      4981            0.0000000000
     32293      5117  TIP3      H2             29.5273863860       11.4109769055      -30.4630273495  TIP3      4981            0.0000000000
     32294      5118  TIP3      OH2            29.1521207654       10.5098470307      -35.9031910042  TIP3      4982            0.0000000000
     32295      5118  TIP3      H1             28.1766118420       10.5023992714      -36.0143983970  TIP3      4982            0.0000000000
     32296      5118  TIP3      H2             29.4566982377       10.3787672201      -36.8318664616  TIP3      4982            0.0000000000
     32297      5119  TIP3      OH2            27.0808093372       10.4962111925      -28.9904312092  TIP3      4983            0.0000000000
     32298      5119  TIP3      H1             27.0587093871       11.0309434491      -28.1783104350  TIP3      4983            0.0000000000
     32299      5119  TIP3      H2             26.5421500342        9.7214033313      -28.7255961279  TIP3      4983            0.0000000000
     32300      5120  TIP3      OH2            30.5749636908        8.1151257754      -41.4520569548  TIP3      4984            0.0000000000
     32301      5120  TIP3      H1             30.0025187555        7.7756482653      -40.7303248900  TIP3      4984            0.0000000000
     32302      5120  TIP3      H2             30.3653002119        9.0743738721      -41.4149842225  TIP3      4984            0.0000000000
     32303      5121  TIP3      OH2            23.9751468693        7.7549692039      -34.6328885348  TIP3      4985            0.0000000000
     32304      5121  TIP3      H1             24.8350120957        7.6997177529      -34.1899542585  TIP3      4985            0.0000000000
     32305      5121  TIP3      H2             24.1979066783        8.0283059721      -35.5377428939  TIP3      4985            0.0000000000
     32306      5122  TIP3      OH2            25.1610986284        8.6763485526      -39.2426469021  TIP3      4986            0.0000000000
     32307      5122  TIP3      H1             25.6755512898        9.1036303267      -39.9580329374  TIP3      4986            0.0000000000
     32308      5122  TIP3      H2             24.4875762177        9.3534951633      -39.0449921368  TIP3      4986            0.0000000000
     32309      5123  TIP3      OH2            31.6076760815        8.2464077178      -34.3082569614  TIP3      4987            0.0000000000
     32310      5123  TIP3      H1             30.6607335700        8.2478824536      -34.0605186388  TIP3      4987            0.0000000000
     32311      5123  TIP3      H2             31.9866355767        8.8172679059      -33.6205351637  TIP3      4987            0.0000000000
     32312      5124  TIP3      OH2            26.5538113483        9.8351026983      -35.8122281433  TIP3      4988            0.0000000000
     32313      5124  TIP3      H1             25.7138237284       10.2948311497      -36.0835134518  TIP3      4988            0.0000000000
     32314      5124  TIP3      H2             26.6264130701        9.1088095066      -36.4519962379  TIP3      4988            0.0000000000
     32315      5125  TIP3      OH2            29.9106229705        9.9603188850      -38.3414430040  TIP3      4989            0.0000000000
     32316      5125  TIP3      H1             30.6871459333        9.3845232823      -38.2048011205  TIP3      4989            0.0000000000
     32317      5125  TIP3      H2             29.9622644924       10.2218413642      -39.2832774599  TIP3      4989            0.0000000000
     32318      5126  TIP3      OH2            29.5748723157       10.5512173933      -40.9469350411  TIP3      4990            0.0000000000
     32319      5126  TIP3      H1             28.6964972005       10.4236937166      -41.3302386660  TIP3      4990            0.0000000000
     32320      5126  TIP3      H2             29.7008135353       11.4987452548      -41.1217474552  TIP3      4990            0.0000000000
     32321      5127  TIP3      OH2            26.8943709645       16.0679493850      -25.4252243884  TIP3      4991            0.0000000000
     32322      5127  TIP3      H1             27.6125308969       16.2006229305      -24.7717612790  TIP3      4991            0.0000000000
     32323      5127  TIP3      H2             26.1308322182       15.8028387820      -24.8682302869  TIP3      4991            0.0000000000
     32324      5128  TIP3      OH2            31.9168194984       10.9265602766      -33.1726581925  TIP3      4992            0.0000000000
     32325      5128  TIP3      H1             32.6661835624       10.8379620521      -33.7763082237  TIP3      4992            0.0000000000
     32326      5128  TIP3      H2             32.4219171799       11.0424841208      -32.3381047372  TIP3      4992            0.0000000000
     32327      5129  TIP3      OH2            28.0218169471        6.6153664805      -36.2286886526  TIP3      4993            0.0000000000
     32328      5129  TIP3      H1             27.2549993820        6.1097714773      -35.8802200982  TIP3      4993            0.0000000000
     32329      5129  TIP3      H2             28.5350400918        5.9321731716      -36.6791959681  TIP3      4993            0.0000000000
     32330      5130  TIP3      OH2            31.7659961239        8.9874353271      -29.9762889114  TIP3      4994            0.0000000000
     32331      5130  TIP3      H1             31.0787641418        9.6682134188      -29.8250242626  TIP3      4994            0.0000000000
     32332      5130  TIP3      H2             32.4393198455        9.5603464331      -30.3953709488  TIP3      4994            0.0000000000
     32333      5131  TIP3      OH2            32.5246521991       15.3731606054      -38.5227140074  TIP3      4995            0.0000000000
     32334      5131  TIP3      H1             31.6943778706       15.1726249344      -38.9703228909  TIP3      4995            0.0000000000
     32335      5131  TIP3      H2             32.2035263438       15.6056941786      -37.6184778709  TIP3      4995            0.0000000000
     32336      5132  TIP3      OH2            27.3016988424       15.0336322438      -32.9120772757  TIP3      4996            0.0000000000
     32337      5132  TIP3      H1             27.8759511337       15.0991520969      -33.7166959442  TIP3      4996            0.0000000000
     32338      5132  TIP3      H2             27.7074878522       14.3175276386      -32.3949445819  TIP3      4996            0.0000000000
     32339      5133  TIP3      OH2            24.8460723141       13.0896638193      -27.4242783727  TIP3      4997            0.0000000000
     32340      5133  TIP3      H1             24.5690190176       13.0839684991      -26.4868593557  TIP3      4997            0.0000000000
     32341      5133  TIP3      H2             24.0123291826       12.8998139140      -27.8859214036  TIP3      4997            0.0000000000
     32342      5134  TIP3      OH2            31.5544489770       12.9589660575      -25.8431660311  TIP3      4998            0.0000000000
     32343      5134  TIP3      H1             31.1811840700       12.8444287381      -26.7428760142  TIP3      4998            0.0000000000
     32344      5134  TIP3      H2             32.4175511958       12.5257232424      -25.9176294723  TIP3      4998            0.0000000000
     32345      5135  TIP3      OH2            29.9432509343       18.7697251569      -35.3842825495  TIP3      4999            0.0000000000
     32346      5135  TIP3      H1             30.3633171478       19.5636632507      -35.7536666071  TIP3      4999            0.0000000000
     32347      5135  TIP3      H2             29.0186323255       19.0169620650      -35.4584167954  TIP3      4999            0.0000000000
     32348      5136  TIP3      OH2            25.7357627465       13.9401329538      -40.7647693640  TIP3      5000            0.0000000000
     32349      5136  TIP3      H1             26.1016654852       14.4807556327      -40.0321882694  TIP3      5000            0.0000000000
     32350      5136  TIP3      H2             24.8007327818       13.8407889061      -40.4863436874  TIP3      5000            0.0000000000
     32351      5137  TIP3      OH2            31.2425569218       16.1297200882      -36.0833768982  TIP3      5001            0.0000000000
     32352      5137  TIP3      H1             30.8568246735       17.0218772460      -35.9572797551  TIP3      5001            0.0000000000
     32353      5137  TIP3      H2             30.6680392425       15.6206234994      -35.4844240710  TIP3      5001            0.0000000000
     32354      5138  TIP3      OH2            31.8149276448       20.3504840607      -28.6936165139  TIP3      5002            0.0000000000
     32355      5138  TIP3      H1             32.0788168826       21.1318579859      -28.1730210862  TIP3      5002            0.0000000000
     32356      5138  TIP3      H2             32.2172576266       19.6294078450      -28.1927804599  TIP3      5002            0.0000000000
     32357      5139  TIP3      OH2            29.9888640297       21.5716484701      -36.4040686306  TIP3      5003            0.0000000000
     32358      5139  TIP3      H1             29.0479572381       21.4145728146      -36.1664478439  TIP3      5003            0.0000000000
     32359      5139  TIP3      H2             30.1326899887       22.4676813946      -36.0092990074  TIP3      5003            0.0000000000
     32360      5140  TIP3      OH2            26.4439365038        8.3224004976      -27.2854742636  TIP3      5004            0.0000000000
     32361      5140  TIP3      H1             25.6932923627        8.6721174878      -26.7680658689  TIP3      5004            0.0000000000
     32362      5140  TIP3      H2             26.2275894016        7.3712456115      -27.2823687815  TIP3      5004            0.0000000000
     32363      5141  TIP3      OH2            25.9049605561       19.8262455809      -29.5845796015  TIP3      5005            0.0000000000
     32364      5141  TIP3      H1             26.2874024462       18.9516245589      -29.3696876900  TIP3      5005            0.0000000000
     32365      5141  TIP3      H2             26.2973783441       20.3690311960      -28.8806927840  TIP3      5005            0.0000000000
     32366      5142  TIP3      OH2            30.1247224853       18.2078801342      -39.9535703111  TIP3      5006            0.0000000000
     32367      5142  TIP3      H1             30.9017563762       17.7524485758      -39.6096087183  TIP3      5006            0.0000000000
     32368      5142  TIP3      H2             30.2037021356       19.1145764744      -39.5693923943  TIP3      5006            0.0000000000
     32369      5143  TIP3      OH2            26.9571338835       15.3078398275      -38.8346828935  TIP3      5007            0.0000000000
     32370      5143  TIP3      H1             26.1835139632       15.7580632578      -38.4204713488  TIP3      5007            0.0000000000
     32371      5143  TIP3      H2             27.3731806655       16.0480872295      -39.3154299212  TIP3      5007            0.0000000000
     32372      5144  TIP3      OH2            32.0304181857        8.9702782475      -36.9146697591  TIP3      5008            0.0000000000
     32373      5144  TIP3      H1             32.6255672513        9.7075491651      -36.6721587298  TIP3      5008            0.0000000000
     32374      5144  TIP3      H2             31.6355519856        8.8014467711      -36.0322718464  TIP3      5008            0.0000000000
     32375      5145  TIP3      OH2            30.2853345997       20.8001934273      -38.9741308611  TIP3      5009            0.0000000000
     32376      5145  TIP3      H1             30.3996751384       21.5911312496      -39.5413470025  TIP3      5009            0.0000000000
     32377      5145  TIP3      H2             30.1024962179       21.2055650658      -38.0956305363  TIP3      5009            0.0000000000
     32378      5146  TIP3      OH2            29.0065452927        7.5081962940      -39.3721373750  TIP3      5010            0.0000000000
     32379      5146  TIP3      H1             28.8282589881        8.2836453162      -38.8116216563  TIP3      5010            0.0000000000
     32380      5146  TIP3      H2             29.4571513883        6.9183092559      -38.7429257852  TIP3      5010            0.0000000000
     32381      5147  TIP3      OH2            27.5830683626       17.9517959054      -40.7433074829  TIP3      5011            0.0000000000
     32382      5147  TIP3      H1             28.4513611117       18.2222904913      -40.3719604962  TIP3      5011            0.0000000000
     32383      5147  TIP3      H2             27.8920023755       17.3178323030      -41.4220057653  TIP3      5011            0.0000000000
     32384      5148  TIP3      OH2            25.9010384948       10.8102387241      -40.8016781014  TIP3      5012            0.0000000000
     32385      5148  TIP3      H1             26.2763828413       11.6934757339      -40.6695083561  TIP3      5012            0.0000000000
     32386      5148  TIP3      H2             24.9806459008       11.0369530440      -40.9842367733  TIP3      5012            0.0000000000
     32387      5149  TIP3      OH2            26.8192201434        5.3323546355      -32.4736900285  TIP3      5013            0.0000000000
     32388      5149  TIP3      H1             26.7822690469        5.2127104960      -33.4522670885  TIP3      5013            0.0000000000
     32389      5149  TIP3      H2             26.5500380421        4.4260941984      -32.1975504059  TIP3      5013            0.0000000000
     32390      5150  TIP3      OH2            24.9246389444       18.9210883017      -37.0460572917  TIP3      5014            0.0000000000
     32391      5150  TIP3      H1             24.4689001285       19.5599566388      -36.4810942529  TIP3      5014            0.0000000000
     32392      5150  TIP3      H2             25.2110255304       19.5227562883      -37.7712700134  TIP3      5014            0.0000000000
     32393      5151  TIP3      OH2            24.6614856492       21.9269695499      -25.3719932635  TIP3      5015            0.0000000000
     32394      5151  TIP3      H1             25.3047029157       21.7380135180      -24.6544583602  TIP3      5015            0.0000000000
     32395      5151  TIP3      H2             24.2231774863       21.0517053103      -25.4666068572  TIP3      5015            0.0000000000
     32396      5152  TIP3      OH2            29.2541336211       21.1442835098      -24.0460905596  TIP3      5016            0.0000000000
     32397      5152  TIP3      H1             29.8458383436       20.4290768677      -23.7505625503  TIP3      5016            0.0000000000
     32398      5152  TIP3      H2             28.9956417008       20.7949128124      -24.9203464853  TIP3      5016            0.0000000000
     32399      5153  TIP3      OH2            24.3842643434       16.0301618264      -24.3017407250  TIP3      5017            0.0000000000
     32400      5153  TIP3      H1             24.3725249446       15.0584711348      -24.3153222627  TIP3      5017            0.0000000000
     32401      5153  TIP3      H2             23.6411537913       16.2379686594      -24.9035620765  TIP3      5017            0.0000000000
     32402      5154  TIP3      OH2            28.8631979284       15.8721574535      -42.0878585534  TIP3      5018            0.0000000000
     32403      5154  TIP3      H1             29.0716692016       15.2324255000      -41.3797705768  TIP3      5018            0.0000000000
     32404      5154  TIP3      H2             29.5938645118       15.7185322358      -42.7060011293  TIP3      5018            0.0000000000
     32405      5155  TIP3      OH2            31.3918217158       15.6438572678      -24.9648396041  TIP3      5019            0.0000000000
     32406      5155  TIP3      H1             31.1446625620       16.1781812318      -25.7612422201  TIP3      5019            0.0000000000
     32407      5155  TIP3      H2             31.4203494845       14.7355702322      -25.3404421706  TIP3      5019            0.0000000000
     32408      5156  TIP3      OH2            25.3857002350       13.4182293411      -24.5954717568  TIP3      5020            0.0000000000
     32409      5156  TIP3      H1             26.1697059621       12.9188999569      -24.8617381487  TIP3      5020            0.0000000000
     32410      5156  TIP3      H2             25.5562528755       13.5389306266      -23.6317032993  TIP3      5020            0.0000000000
     32411      5157  TIP3      OH2            29.6400959682       13.8748193433      -40.0521978860  TIP3      5021            0.0000000000
     32412      5157  TIP3      H1             29.3817093913       13.3802216682      -39.2429656431  TIP3      5021            0.0000000000
     32413      5157  TIP3      H2             30.4344192269       13.4056089712      -40.3739621728  TIP3      5021            0.0000000000
     32414      5158  TIP3      OH2            29.6251250706       12.3563259495      -27.7153309165  TIP3      5022            0.0000000000
     32415      5158  TIP3      H1             29.0205981330       13.1024220581      -27.9408637381  TIP3      5022            0.0000000000
     32416      5158  TIP3      H2             30.1451672491       12.2522939605      -28.5305453304  TIP3      5022            0.0000000000
     32417      5159  TIP3      OH2            31.6243305441       12.5626609579      -41.2693231355  TIP3      5023            0.0000000000
     32418      5159  TIP3      H1             31.9369748998       11.7907624350      -41.7624485168  TIP3      5023            0.0000000000
     32419      5159  TIP3      H2             32.4458868171       12.8357151883      -40.8230707291  TIP3      5023            0.0000000000
     32420      5160  TIP3      OH2            30.0631641717        9.8356943458      -26.3990695104  TIP3      5024            0.0000000000
     32421      5160  TIP3      H1             30.1393214300        9.1339665322      -27.0782914165  TIP3      5024            0.0000000000
     32422      5160  TIP3      H2             30.0702924207       10.6636899316      -26.9174082163  TIP3      5024            0.0000000000
     32423      5161  TIP3      OH2            30.1949368689        7.3538941494      -28.5452615052  TIP3      5025            0.0000000000
     32424      5161  TIP3      H1             30.6546452141        7.8737423560      -29.2480909857  TIP3      5025            0.0000000000
     32425      5161  TIP3      H2             29.3163911757        7.1979454397      -28.9574855985  TIP3      5025            0.0000000000
     32426      5162  TIP3      OH2            32.4023215940       13.2705833443      -28.9597452434  TIP3      5026            0.0000000000
     32427      5162  TIP3      H1             32.9494962372       13.4479791756      -29.7517631049  TIP3      5026            0.0000000000
     32428      5162  TIP3      H2             31.5871637756       13.7391102996      -29.2309785062  TIP3      5026            0.0000000000
     32429      5163  TIP3      OH2            27.4930862977       11.2484558988      -26.1674098939  TIP3      5027            0.0000000000
     32430      5163  TIP3      H1             27.5364099897       10.3123267271      -26.4226201813  TIP3      5027            0.0000000000
     32431      5163  TIP3      H2             28.3288332300       11.6107075834      -26.5225804644  TIP3      5027            0.0000000000
     32432      5164  TIP3      OH2            31.1251925980        4.8119854552      -28.6146451853  TIP3      5028            0.0000000000
     32433      5164  TIP3      H1             30.8308862823        5.7451775714      -28.5174992031  TIP3      5028            0.0000000000
     32434      5164  TIP3      H2             30.3107064439        4.3695698985      -28.9200142834  TIP3      5028            0.0000000000
     32435      5165  TIP3      OH2            31.9916928819        9.8161202734      -24.0712680773  TIP3      5029            0.0000000000
     32436      5165  TIP3      H1             32.4167200731        8.9638783004      -23.8896047100  TIP3      5029            0.0000000000
     32437      5165  TIP3      H2             31.6191054515        9.6661017702      -24.9592092005  TIP3      5029            0.0000000000
     32438      5166  TIP3      OH2            26.5919619549        7.7625591415      -24.0144484086  TIP3      5030            0.0000000000
     32439      5166  TIP3      H1             26.2649300041        7.2629085469      -24.7882652799  TIP3      5030            0.0000000000
     32440      5166  TIP3      H2             26.4466793406        7.1389996844      -23.2751212106  TIP3      5030            0.0000000000
     32441      5167  TIP3      OH2            31.9439221106        4.3747307928      -25.9411041286  TIP3      5031            0.0000000000
     32442      5167  TIP3      H1             32.6180619013        3.6783825232      -26.0681005494  TIP3      5031            0.0000000000
     32443      5167  TIP3      H2             31.5455466924        4.4635660028      -26.8356266985  TIP3      5031            0.0000000000
     32444      5168  TIP3      OH2            32.9213105583        6.9683290815      -24.4478736524  TIP3      5032            0.0000000000
     32445      5168  TIP3      H1             32.7899531170        6.2676978342      -25.1149395525  TIP3      5032            0.0000000000
     32446      5168  TIP3      H2             32.1294318135        6.8862827891      -23.8884852112  TIP3      5032            0.0000000000
     32447      5169  TIP3      OH2            31.1400146328       22.8439510279      -40.7875847462  TIP3      5033            0.0000000000
     32448      5169  TIP3      H1             31.6497664170       23.3417492138      -40.1269225042  TIP3      5033            0.0000000000
     32449      5169  TIP3      H2             31.2079244920       23.4213166455      -41.5529066980  TIP3      5033            0.0000000000
     32450      5170  TIP3      OH2            24.9159210001       17.4918166678      -40.8058847595  TIP3      5034            0.0000000000
     32451      5170  TIP3      H1             25.8569847958       17.7763434124      -40.6854214327  TIP3      5034            0.0000000000
     32452      5170  TIP3      H2             24.8996533649       17.3708155005      -41.7759057339  TIP3      5034            0.0000000000
     32453      5171  TIP3      OH2            23.8728127698       22.8414330690      -35.9791511228  TIP3      5035            0.0000000000
     32454      5171  TIP3      H1             23.1470446095       22.4429832794      -36.5086933839  TIP3      5035            0.0000000000
     32455      5171  TIP3      H2             24.0477286879       22.1128928998      -35.3525717771  TIP3      5035            0.0000000000
     32456      5172  TIP3      OH2            24.6025656272       21.1532793646      -34.0431170753  TIP3      5036            0.0000000000
     32457      5172  TIP3      H1             23.9133505789       20.7696526724      -33.4722613207  TIP3      5036            0.0000000000
     32458      5172  TIP3      H2             25.1540526983       21.5603344815      -33.3408346567  TIP3      5036            0.0000000000
     32459      5173  TIP3      OH2            24.4948691210       14.2207299949      -31.2964677595  TIP3      5037            0.0000000000
     32460      5173  TIP3      H1             24.4049401009       13.7965157726      -32.1770936318  TIP3      5037            0.0000000000
     32461      5173  TIP3      H2             25.3722594277       13.8802008629      -30.9824155338  TIP3      5037            0.0000000000
     32462      5174  TIP3      OH2            24.3012187449        9.6192132601      -25.0723298820  TIP3      5038            0.0000000000
     32463      5174  TIP3      H1             24.8161865194        9.4930572978      -24.2720940406  TIP3      5038            0.0000000000
     32464      5174  TIP3      H2             23.8251594509        8.7609707454      -25.1095457386  TIP3      5038            0.0000000000
     32465      5175  TIP3      OH2            25.7235498571        7.6354819812      -31.9087292338  TIP3      5039            0.0000000000
     32466      5175  TIP3      H1             26.0662220593        6.7145670869      -32.0187749504  TIP3      5039            0.0000000000
     32467      5175  TIP3      H2             26.5133921697        8.1852123266      -32.0758481390  TIP3      5039            0.0000000000
     32468      5176  TIP3      OH2            24.0155606628       10.4828367229      -31.0057201037  TIP3      5040            0.0000000000
     32469      5176  TIP3      H1             24.4619501535        9.7597846515      -31.4710853206  TIP3      5040            0.0000000000
     32470      5176  TIP3      H2             24.4115765302       11.2512946670      -31.4449753507  TIP3      5040            0.0000000000
     32471      5177  TIP3      OH2            23.9491667455        7.0305871270      -37.4884896440  TIP3      5041            0.0000000000
     32472      5177  TIP3      H1             23.0126328269        7.2283137423      -37.6222280318  TIP3      5041            0.0000000000
     32473      5177  TIP3      H2             24.3076844057        7.3724338873      -38.3281224012  TIP3      5041            0.0000000000
     32474      5178  TIP3      OH2            24.2788777570        5.4385068488      -29.0737808660  TIP3      5042            0.0000000000
     32475      5178  TIP3      H1             23.7206860840        5.0899557648      -28.3475192933  TIP3      5042            0.0000000000
     32476      5178  TIP3      H2             23.7787226098        6.2055066366      -29.3773487692  TIP3      5042            0.0000000000
     32477      5179  TIP3      OH2            26.9252426819       19.1998860059      -24.5325779014  TIP3      5043            0.0000000000
     32478      5179  TIP3      H1             26.0567820135       19.2607901991      -24.9546518636  TIP3      5043            0.0000000000
     32479      5179  TIP3      H2             26.8987300446       18.3482217501      -24.0719575816  TIP3      5043            0.0000000000
     32480      5180  TIP3      OH2            29.1674173241       20.4737261237      -28.3604488914  TIP3      5044            0.0000000000
     32481      5180  TIP3      H1             29.0096878547       21.3068483301      -28.8491262919  TIP3      5044            0.0000000000
     32482      5180  TIP3      H2             30.1311612148       20.3933286418      -28.5302939819  TIP3      5044            0.0000000000
     32483      5181  TIP3      OH2            26.3338206402       23.3905465589      -28.7518174620  TIP3      5045            0.0000000000
     32484      5181  TIP3      H1             25.6164239973       24.0490059968      -28.7499012391  TIP3      5045            0.0000000000
     32485      5181  TIP3      H2             26.3723118187       23.1257679374      -27.8208000504  TIP3      5045            0.0000000000
     32486      5182  TIP3      OH2            28.6192392241       22.6450163343      -29.8228462454  TIP3      5046            0.0000000000
     32487      5182  TIP3      H1             27.6880656677       22.7910062402      -29.5232250457  TIP3      5046            0.0000000000
     32488      5182  TIP3      H2             28.6499100530       23.2890210605      -30.5659959681  TIP3      5046            0.0000000000
     32489      5183  TIP3      OH2            26.0722861199       21.7088739265      -31.8602670192  TIP3      5047            0.0000000000
     32490      5183  TIP3      H1             25.8631263138       21.3525503114      -30.9740220024  TIP3      5047            0.0000000000
     32491      5183  TIP3      H2             26.9337222575       21.2953808939      -32.0504913690  TIP3      5047            0.0000000000
     32492      5184  TIP3      OH2            28.1989976508       20.5386724149      -33.3063066482  TIP3      5048            0.0000000000
     32493      5184  TIP3      H1             27.8480648120       19.6934075346      -32.9734074674  TIP3      5048            0.0000000000
     32494      5184  TIP3      H2             28.9654927060       20.6278835491      -32.6813489054  TIP3      5048            0.0000000000
     32495      5185  TIP3      OH2            30.2165425941       20.1459811372      -31.7445937181  TIP3      5049            0.0000000000
     32496      5185  TIP3      H1             30.7416593790       19.4683796143      -32.1948438481  TIP3      5049            0.0000000000
     32497      5185  TIP3      H2             30.6313430496       20.2030943323      -30.8722912655  TIP3      5049            0.0000000000
     32498      5186  TIP3      OH2            26.2984475355        4.7371193852      -35.0879418435  TIP3      5050            0.0000000000
     32499      5186  TIP3      H1             25.4043556122        4.6322956761      -35.4685817607  TIP3      5050            0.0000000000
     32500      5186  TIP3      H2             26.7380687325        3.8882015716      -35.3179835085  TIP3      5050            0.0000000000
     32501      5187  TIP3      OH2            25.3732289704        4.9800351574      -39.3464293688  TIP3      5051            0.0000000000
     32502      5187  TIP3      H1             25.8069254656        5.7484397275      -39.7915003129  TIP3      5051            0.0000000000
     32503      5187  TIP3      H2             24.7346079901        5.4172037101      -38.7583064208  TIP3      5051            0.0000000000
     32504      5188  TIP3      OH2            31.3044902512        5.1008781805      -35.1141479824  TIP3      5052            0.0000000000
     32505      5188  TIP3      H1             31.3072321158        6.0648101407      -34.9966953577  TIP3      5052            0.0000000000
     32506      5188  TIP3      H2             31.5933605808        4.8428940276      -34.2045948301  TIP3      5052            0.0000000000
     32507      5189  TIP3      OH2            24.9254392645       20.9527971990      -38.8942489825  TIP3      5053            0.0000000000
     32508      5189  TIP3      H1             24.0173584817       21.0359213379      -39.2384561274  TIP3      5053            0.0000000000
     32509      5189  TIP3      H2             25.1872728949       21.8770881401      -39.0240034129  TIP3      5053            0.0000000000
     32510      5190  TIP3      OH2            26.9959145291        6.4996867434      -40.7796922677  TIP3      5054            0.0000000000
     32511      5190  TIP3      H1             27.3661545809        6.1618124569      -41.6046657817  TIP3      5054            0.0000000000
     32512      5190  TIP3      H2             27.7932492980        6.8032456444      -40.2921968655  TIP3      5054            0.0000000000
     32513      5191  TIP3      OH2            31.2381439946        5.8289228368      -38.3165804181  TIP3      5055            0.0000000000
     32514      5191  TIP3      H1             31.3967796486        5.5964466677      -37.3857292470  TIP3      5055            0.0000000000
     32515      5191  TIP3      H2             32.0507894252        6.3411441557      -38.4576706047  TIP3      5055            0.0000000000
     32516      5192  TIP3      OH2            26.0773223302        5.5886529755      -26.2859691717  TIP3      5056            0.0000000000
     32517      5192  TIP3      H1             25.4966195073        4.9085241183      -25.8962431666  TIP3      5056            0.0000000000
     32518      5192  TIP3      H2             26.8801306105        5.4859642402      -25.7415546064  TIP3      5056            0.0000000000
     32519      5193  TIP3      OH2            28.0574810622        5.2871741634      -24.2621445934  TIP3      5057            0.0000000000
     32520      5193  TIP3      H1             28.9216018433        4.8568894055      -24.3353410040  TIP3      5057            0.0000000000
     32521      5193  TIP3      H2             27.8451168822        5.1201438738      -23.3230685600  TIP3      5057            0.0000000000
     32522      5194  TIP3      OH2            27.1016068923       22.2002781973      -41.5735771626  TIP3      5058            0.0000000000
     32523      5194  TIP3      H1             26.5626148186       22.5894149584      -40.8679119451  TIP3      5058            0.0000000000
     32524      5194  TIP3      H2             27.3260574182       21.3325079233      -41.2122811266  TIP3      5058            0.0000000000
     32525      5195  TIP3      OH2           -21.1927915041       32.6792414806      -32.2323822290  TIP3      5059            0.0000000000
     32526      5195  TIP3      H1            -21.0757800583       32.5566854279      -31.2731267443  TIP3      5059            0.0000000000
     32527      5195  TIP3      H2            -22.1606149412       32.6933771621      -32.3238418265  TIP3      5059            0.0000000000
     32528      5196  TIP3      OH2           -30.0515347524       32.3245173106      -30.7614837911  TIP3      5060            0.0000000000
     32529      5196  TIP3      H1            -30.0558301074       31.5652538164      -30.1556301107  TIP3      5060            0.0000000000
     32530      5196  TIP3      H2            -29.3297231415       32.8584277283      -30.4046092482  TIP3      5060            0.0000000000
     32531      5197  TIP3      OH2           -31.5724443546       30.9442890534      -36.6986065025  TIP3      5061            0.0000000000
     32532      5197  TIP3      H1            -31.8080203304       31.5122262625      -35.9389392936  TIP3      5061            0.0000000000
     32533      5197  TIP3      H2            -31.8810135147       30.0752715621      -36.3799118144  TIP3      5061            0.0000000000
     32534      5198  TIP3      OH2           -32.0180048376       32.3403731846      -34.3972302666  TIP3      5062            0.0000000000
     32535      5198  TIP3      H1            -32.0671388161       31.5501782030      -33.8333045000  TIP3      5062            0.0000000000
     32536      5198  TIP3      H2            -31.0463938849       32.4981405355      -34.3765986793  TIP3      5062            0.0000000000
     32537      5199  TIP3      OH2           -15.5146695942       26.2680914472      -31.3280811739  TIP3      5063            0.0000000000
     32538      5199  TIP3      H1            -14.7497084129       26.6431356825      -30.8543514850  TIP3      5063            0.0000000000
     32539      5199  TIP3      H2            -15.0961774734       25.5465262371      -31.8189622380  TIP3      5063            0.0000000000
     32540      5200  TIP3      OH2           -20.6272903048       29.7026087180      -30.8545790187  TIP3      5064            0.0000000000
     32541      5200  TIP3      H1            -20.5777765186       28.7363058718      -30.7185758055  TIP3      5064            0.0000000000
     32542      5200  TIP3      H2            -20.8246583674       29.7740329862      -31.8209400572  TIP3      5064            0.0000000000
     32543      5201  TIP3      OH2           -27.8154767610       27.0880599151      -34.1844497760  TIP3      5065            0.0000000000
     32544      5201  TIP3      H1            -27.3545745782       27.8401760288      -34.6157423786  TIP3      5065            0.0000000000
     32545      5201  TIP3      H2            -28.2715888111       26.7510879890      -34.9851895809  TIP3      5065            0.0000000000
     32546      5202  TIP3      OH2           -19.7811608269       27.7249087735      -34.9494274157  TIP3      5066            0.0000000000
     32547      5202  TIP3      H1            -19.2491972797       27.1679557512      -34.3363732731  TIP3      5066            0.0000000000
     32548      5202  TIP3      H2            -19.1058363313       28.3928363517      -35.1420085477  TIP3      5066            0.0000000000
     32549      5203  TIP3      OH2           -31.3193985416       29.6546201674      -33.6801808420  TIP3      5067            0.0000000000
     32550      5203  TIP3      H1            -30.6484022335       29.1492764869      -33.1988432526  TIP3      5067            0.0000000000
     32551      5203  TIP3      H2            -30.7264783569       30.0733771379      -34.3433546162  TIP3      5067            0.0000000000
     32552      5204  TIP3      OH2           -25.5744972103       31.3791459263      -33.8310231344  TIP3      5068            0.0000000000
     32553      5204  TIP3      H1            -24.8461554202       30.7333183224      -33.6800835488  TIP3      5068            0.0000000000
     32554      5204  TIP3      H2            -26.1314232564       30.8716657797      -34.4531771245  TIP3      5068            0.0000000000
     32555      5205  TIP3      OH2           -15.0217188433       27.9519245482      -28.4937649400  TIP3      5069            0.0000000000
     32556      5205  TIP3      H1            -15.7494639770       28.4509934303      -28.9224702007  TIP3      5069            0.0000000000
     32557      5205  TIP3      H2            -15.0440883140       28.3081008630      -27.5966103654  TIP3      5069            0.0000000000
     32558      5206  TIP3      OH2           -27.8924043915       26.4016328824      -29.9768475197  TIP3      5070            0.0000000000
     32559      5206  TIP3      H1            -28.4431070098       26.9216320901      -30.5996253293  TIP3      5070            0.0000000000
     32560      5206  TIP3      H2            -28.5187411823       26.2607967381      -29.2431415305  TIP3      5070            0.0000000000
     32561      5207  TIP3      OH2           -17.7301487388       27.0834538214      -33.4230195094  TIP3      5071            0.0000000000
     32562      5207  TIP3      H1            -17.4072488475       26.4096605638      -32.8045648652  TIP3      5071            0.0000000000
     32563      5207  TIP3      H2            -17.3138385731       27.8887099328      -33.0536197122  TIP3      5071            0.0000000000
     32564      5208  TIP3      OH2           -29.0245540951       28.2891716613      -31.8758622971  TIP3      5072            0.0000000000
     32565      5208  TIP3      H1            -28.5027156433       29.0686992726      -31.6114023283  TIP3      5072            0.0000000000
     32566      5208  TIP3      H2            -28.6180699490       28.0687989515      -32.7416516240  TIP3      5072            0.0000000000
     32567      5209  TIP3      OH2           -18.1361016160       25.9621232759      -30.0100456653  TIP3      5073            0.0000000000
     32568      5209  TIP3      H1            -18.8592845972       26.2131472608      -30.6290642175  TIP3      5073            0.0000000000
     32569      5209  TIP3      H2            -17.3708630326       26.3996487102      -30.4279148644  TIP3      5073            0.0000000000
     32570      5210  TIP3      OH2           -25.0435452553       23.7406531441      -32.9414973965  TIP3      5074            0.0000000000
     32571      5210  TIP3      H1            -25.1228433479       22.7938909775      -32.7718976470  TIP3      5074            0.0000000000
     32572      5210  TIP3      H2            -25.8635269142       24.0827170745      -32.5167172255  TIP3      5074            0.0000000000
     32573      5211  TIP3      OH2           -22.5215322505       32.0289831359      -38.0480230398  TIP3      5075            0.0000000000
     32574      5211  TIP3      H1            -23.0517667956       32.7941595465      -38.2976788865  TIP3      5075            0.0000000000
     32575      5211  TIP3      H2            -21.6174473123       32.2872411510      -38.3418670462  TIP3      5075            0.0000000000
     32576      5212  TIP3      OH2           -22.3849516198       31.1010378138      -41.0507478212  TIP3      5076            0.0000000000
     32577      5212  TIP3      H1            -21.9569531258       31.5074400316      -40.2855965280  TIP3      5076            0.0000000000
     32578      5212  TIP3      H2            -22.2620267448       30.1557172088      -40.8606964081  TIP3      5076            0.0000000000
     32579      5213  TIP3      OH2           -15.2209142187       31.7085116132      -29.8835989903  TIP3      5077            0.0000000000
     32580      5213  TIP3      H1            -14.6224737097       32.4867241587      -29.7956113213  TIP3      5077            0.0000000000
     32581      5213  TIP3      H2            -15.1563087171       31.5377618742      -30.8396755210  TIP3      5077            0.0000000000
     32582      5214  TIP3      OH2           -18.7877933917       32.0300250818      -36.3194710534  TIP3      5078            0.0000000000
     32583      5214  TIP3      H1            -19.2356532581       31.4523781166      -35.6805440899  TIP3      5078            0.0000000000
     32584      5214  TIP3      H2            -17.8572536464       31.8030316139      -36.1407346220  TIP3      5078            0.0000000000
     32585      5215  TIP3      OH2           -18.9973985375       31.6024822231      -28.2527823929  TIP3      5079            0.0000000000
     32586      5215  TIP3      H1            -19.0420423191       32.1610519669      -27.4438082361  TIP3      5079            0.0000000000
     32587      5215  TIP3      H2            -19.9043807207       31.6643521800      -28.6133786638  TIP3      5079            0.0000000000
     32588      5216  TIP3      OH2           -26.9538612015       31.9451000789      -31.5317431617  TIP3      5080            0.0000000000
     32589      5216  TIP3      H1            -26.6257087486       31.6433459453      -32.4044657719  TIP3      5080            0.0000000000
     32590      5216  TIP3      H2            -27.0078519736       32.9066357714      -31.7204236019  TIP3      5080            0.0000000000
     32591      5217  TIP3      OH2           -20.0254030839       32.6651387440      -38.5918065400  TIP3      5081            0.0000000000
     32592      5217  TIP3      H1            -19.5546836494       32.2765973207      -37.8127438169  TIP3      5081            0.0000000000
     32593      5217  TIP3      H2            -19.3708225764       32.5363137577      -39.3214598081  TIP3      5081            0.0000000000
     32594      5218  TIP3      OH2           -28.2225993174       32.7478380874      -27.9938996981  TIP3      5082            0.0000000000
     32595      5218  TIP3      H1            -28.2112043557       33.2712776464      -27.1783089842  TIP3      5082            0.0000000000
     32596      5218  TIP3      H2            -29.1122198677       32.3490853410      -27.9391565440  TIP3      5082            0.0000000000
     32597      5219  TIP3      OH2           -16.3657795835       23.5893424974      -39.7739576599  TIP3      5083            0.0000000000
     32598      5219  TIP3      H1            -16.5211376519       23.7004804573      -40.7336178919  TIP3      5083            0.0000000000
     32599      5219  TIP3      H2            -15.9386083467       24.4423702112      -39.5930480880  TIP3      5083            0.0000000000
     32600      5220  TIP3      OH2           -28.1711326530       31.8058677894      -38.0614495042  TIP3      5084            0.0000000000
     32601      5220  TIP3      H1            -28.4566795601       32.7133088559      -37.9050829990  TIP3      5084            0.0000000000
     32602      5220  TIP3      H2            -28.8827831867       31.3094516884      -37.6203939898  TIP3      5084            0.0000000000
     32603      5221  TIP3      OH2           -16.8609324605       29.0633404589      -26.4033967058  TIP3      5085            0.0000000000
     32604      5221  TIP3      H1            -17.3955824014       29.5387040101      -27.0614036870  TIP3      5085            0.0000000000
     32605      5221  TIP3      H2            -16.9685684092       28.1452296773      -26.7385550185  TIP3      5085            0.0000000000
     32606      5222  TIP3      OH2           -27.2797361345       24.6714649014      -31.8534634739  TIP3      5086            0.0000000000
     32607      5222  TIP3      H1            -27.9628479971       25.1782535570      -32.3212135660  TIP3      5086            0.0000000000
     32608      5222  TIP3      H2            -27.2281690474       25.1890344588      -31.0199225033  TIP3      5086            0.0000000000
     32609      5223  TIP3      OH2           -22.2748440345       24.0407646058      -28.6048917764  TIP3      5087            0.0000000000
     32610      5223  TIP3      H1            -22.0293055388       23.7150810474      -27.7140480553  TIP3      5087            0.0000000000
     32611      5223  TIP3      H2            -23.2358404624       24.2132546718      -28.5271532721  TIP3      5087            0.0000000000
     32612      5224  TIP3      OH2           -19.8146504579       28.2008491244      -27.4276734822  TIP3      5088            0.0000000000
     32613      5224  TIP3      H1            -20.4619391017       28.2899836591      -26.6904592518  TIP3      5088            0.0000000000
     32614      5224  TIP3      H2            -19.7219957080       29.1098024808      -27.7547192301  TIP3      5088            0.0000000000
     32615      5225  TIP3      OH2           -18.4933258919       32.3158496473      -40.7525235396  TIP3      5089            0.0000000000
     32616      5225  TIP3      H1            -18.5072634621       31.9179273043      -41.6297028907  TIP3      5089            0.0000000000
     32617      5225  TIP3      H2            -17.5432621520       32.5227527840      -40.6573461074  TIP3      5089            0.0000000000
     32618      5226  TIP3      OH2           -23.0053109628       27.6071328867      -40.8887648566  TIP3      5090            0.0000000000
     32619      5226  TIP3      H1            -23.2864065749       27.1602292433      -40.0725538649  TIP3      5090            0.0000000000
     32620      5226  TIP3      H2            -23.1771172120       26.9300924370      -41.5557045077  TIP3      5090            0.0000000000
     32621      5227  TIP3      OH2           -27.0245937061       29.6067096688      -30.2011666721  TIP3      5091            0.0000000000
     32622      5227  TIP3      H1            -27.8873117859       29.5873807530      -29.7491592584  TIP3      5091            0.0000000000
     32623      5227  TIP3      H2            -27.0897120403       30.4790608292      -30.6540536899  TIP3      5091            0.0000000000
     32624      5228  TIP3      OH2           -27.1250180032       29.3035655951      -35.5716212499  TIP3      5092            0.0000000000
     32625      5228  TIP3      H1            -27.9353874635       29.8609399138      -35.5019895072  TIP3      5092            0.0000000000
     32626      5228  TIP3      H2            -26.9599613172       29.3049801318      -36.5272870342  TIP3      5092            0.0000000000
     32627      5229  TIP3      OH2           -21.2773957020       30.5802924677      -35.9862515472  TIP3      5093            0.0000000000
     32628      5229  TIP3      H1            -21.7569728388       31.2202735647      -36.5533966066  TIP3      5093            0.0000000000
     32629      5229  TIP3      H2            -21.3723028969       29.7841177927      -36.5367597891  TIP3      5093            0.0000000000
     32630      5230  TIP3      OH2           -22.6665400286       30.5608894028      -25.0300749183  TIP3      5094            0.0000000000
     32631      5230  TIP3      H1            -22.9705007787       29.7639344872      -24.5441089639  TIP3      5094            0.0000000000
     32632      5230  TIP3      H2            -21.7995196619       30.7347263737      -24.6253378974  TIP3      5094            0.0000000000
     32633      5231  TIP3      OH2           -21.1835604221       29.5247873688      -33.4402574992  TIP3      5095            0.0000000000
     32634      5231  TIP3      H1            -21.1214255711       30.1614239080      -34.1899162587  TIP3      5095            0.0000000000
     32635      5231  TIP3      H2            -20.9143602953       28.7206650214      -33.9257696438  TIP3      5095            0.0000000000
     32636      5232  TIP3      OH2           -29.7046876601       29.6960300779      -29.1841734568  TIP3      5096            0.0000000000
     32637      5232  TIP3      H1            -29.8222958528       29.9242048164      -28.2515358610  TIP3      5096            0.0000000000
     32638      5232  TIP3      H2            -29.9205723117       28.7375361616      -29.1738664813  TIP3      5096            0.0000000000
     32639      5233  TIP3      OH2           -26.3986617442       27.5035412448      -41.8468799289  TIP3      5097            0.0000000000
     32640      5233  TIP3      H1            -26.3283820941       27.2140074259      -40.9239082985  TIP3      5097            0.0000000000
     32641      5233  TIP3      H2            -26.8588990594       28.3586006706      -41.7163700327  TIP3      5097            0.0000000000
     32642      5234  TIP3      OH2           -32.2064180651       26.1783293296      -34.9310714260  TIP3      5098            0.0000000000
     32643      5234  TIP3      H1            -31.7712986914       26.5506828333      -34.1473930702  TIP3      5098            0.0000000000
     32644      5234  TIP3      H2            -33.1240469723       26.0717588022      -34.6081931903  TIP3      5098            0.0000000000
     32645      5235  TIP3      OH2           -31.8123039553       27.5893467377      -39.2916658091  TIP3      5099            0.0000000000
     32646      5235  TIP3      H1            -31.2131603416       27.8486919896      -40.0137293023  TIP3      5099            0.0000000000
     32647      5235  TIP3      H2            -32.3299198545       28.3856825299      -39.1343986433  TIP3      5099            0.0000000000
     32648      5236  TIP3      OH2           -21.6768368460       31.3901206140      -29.1005871478  TIP3      5100            0.0000000000
     32649      5236  TIP3      H1            -21.4894102562       30.7229768069      -29.8101233097  TIP3      5100            0.0000000000
     32650      5236  TIP3      H2            -22.0865798202       30.7891246490      -28.4328188406  TIP3      5100            0.0000000000
     32651      5237  TIP3      OH2           -24.5523567426       27.3567507375      -34.7410695526  TIP3      5101            0.0000000000
     32652      5237  TIP3      H1            -25.3875259921       27.5706334726      -34.3082562753  TIP3      5101            0.0000000000
     32653      5237  TIP3      H2            -24.0965548378       26.7745893084      -34.1001074026  TIP3      5101            0.0000000000
     32654      5238  TIP3      OH2           -30.3331020098       28.0425787708      -36.1773115048  TIP3      5102            0.0000000000
     32655      5238  TIP3      H1            -30.6281998579       28.3740362101      -37.0350533305  TIP3      5102            0.0000000000
     32656      5238  TIP3      H2            -29.6944508178       27.3442393851      -36.4014931951  TIP3      5102            0.0000000000
     32657      5239  TIP3      OH2           -26.1522942506       28.6921579003      -38.4354279432  TIP3      5103            0.0000000000
     32658      5239  TIP3      H1            -25.5194829211       29.3945905416      -38.2457513860  TIP3      5103            0.0000000000
     32659      5239  TIP3      H2            -26.8506755192       29.1689307234      -38.9162561538  TIP3      5103            0.0000000000
     32660      5240  TIP3      OH2           -20.1179674786       26.8282450129      -31.4566595740  TIP3      5104            0.0000000000
     32661      5240  TIP3      H1            -20.7196486065       26.5851139885      -30.7088342883  TIP3      5104            0.0000000000
     32662      5240  TIP3      H2            -20.7358674499       26.8689068524      -32.1999512398  TIP3      5104            0.0000000000
     32663      5241  TIP3      OH2           -27.3396334463       29.9747123221      -41.0053122530  TIP3      5105            0.0000000000
     32664      5241  TIP3      H1            -27.8776059202       30.0281981827      -41.8232835098  TIP3      5105            0.0000000000
     32665      5241  TIP3      H2            -26.4819911606       30.3707899893      -41.2835977937  TIP3      5105            0.0000000000
     32666      5242  TIP3      OH2           -23.8150548317       29.6133408823      -32.9867779033  TIP3      5106            0.0000000000
     32667      5242  TIP3      H1            -22.8386800861       29.6004517784      -33.1184316774  TIP3      5106            0.0000000000
     32668      5242  TIP3      H2            -23.9196906296       29.0864548294      -32.1631177067  TIP3      5106            0.0000000000
     32669      5243  TIP3      OH2           -28.4199937496       25.8445340539      -36.4466388337  TIP3      5107            0.0000000000
     32670      5243  TIP3      H1            -28.9844112272       25.1231812455      -36.0716419543  TIP3      5107            0.0000000000
     32671      5243  TIP3      H2            -27.5864812982       25.3592371157      -36.5500028231  TIP3      5107            0.0000000000
     32672      5244  TIP3      OH2           -24.2573053538       28.9305242273      -30.3843986546  TIP3      5108            0.0000000000
     32673      5244  TIP3      H1            -25.0972911220       29.4082828942      -30.5548305877  TIP3      5108            0.0000000000
     32674      5244  TIP3      H2            -23.9391357362       29.3606782299      -29.5724516964  TIP3      5108            0.0000000000
     32675      5245  TIP3      OH2           -20.5440278635       27.1342703052      -39.8831410317  TIP3      5109            0.0000000000
     32676      5245  TIP3      H1            -21.3588527031       27.3904861037      -40.3503258023  TIP3      5109            0.0000000000
     32677      5245  TIP3      H2            -20.0686254308       27.9888363766      -39.8923583875  TIP3      5109            0.0000000000
     32678      5246  TIP3      OH2           -19.7189798751       29.7498697178      -39.0978605175  TIP3      5110            0.0000000000
     32679      5246  TIP3      H1            -18.9797893002       29.9695542353      -38.5088016237  TIP3      5110            0.0000000000
     32680      5246  TIP3      H2            -19.5739021767       30.3543275583      -39.8466574648  TIP3      5110            0.0000000000
     32681      5247  TIP3      OH2           -31.1807476120       31.8440674729      -27.2773198799  TIP3      5111            0.0000000000
     32682      5247  TIP3      H1            -31.3647375276       31.7678199680      -26.3156846634  TIP3      5111            0.0000000000
     32683      5247  TIP3      H2            -32.0891728292       31.7446365882      -27.6141899129  TIP3      5111            0.0000000000
     32684      5248  TIP3      OH2           -25.5794564692       31.4962299519      -25.1245006511  TIP3      5112            0.0000000000
     32685      5248  TIP3      H1            -26.0048680989       31.0478083603      -25.8874862233  TIP3      5112            0.0000000000
     32686      5248  TIP3      H2            -24.6731752144       31.1440121304      -25.2066213675  TIP3      5112            0.0000000000
     32687      5249  TIP3      OH2           -15.4551468038       29.9894590577      -38.5034759490  TIP3      5113            0.0000000000
     32688      5249  TIP3      H1            -15.7323367629       30.0717918132      -39.4432124892  TIP3      5113            0.0000000000
     32689      5249  TIP3      H2            -14.8160191711       30.7192838372      -38.4688886175  TIP3      5113            0.0000000000
     32690      5250  TIP3      OH2           -31.2177899313       31.2408196365      -41.1767533187  TIP3      5114            0.0000000000
     32691      5250  TIP3      H1            -30.7473699945       32.0607740535      -41.3948480125  TIP3      5114            0.0000000000
     32692      5250  TIP3      H2            -31.7770939844       31.5659446065      -40.4445761988  TIP3      5114            0.0000000000
     32693      5251  TIP3      OH2           -30.4212440339       27.1720215399      -28.2898485075  TIP3      5115            0.0000000000
     32694      5251  TIP3      H1            -30.7895792807       27.7667148107      -27.6039839963  TIP3      5115            0.0000000000
     32695      5251  TIP3      H2            -30.6869837841       26.3241566158      -27.9010721198  TIP3      5115            0.0000000000
     32696      5252  TIP3      OH2           -21.1634937722       26.4348599115      -29.1202746627  TIP3      5116            0.0000000000
     32697      5252  TIP3      H1            -20.4497258917       26.6228392036      -28.4826694598  TIP3      5116            0.0000000000
     32698      5252  TIP3      H2            -21.5222715478       25.5667698014      -28.8324650474  TIP3      5116            0.0000000000
     32699      5253  TIP3      OH2           -20.5792640404       26.7224110494      -37.2318436145  TIP3      5117            0.0000000000
     32700      5253  TIP3      H1            -20.6437800120       27.2875762425      -38.0273336394  TIP3      5117            0.0000000000
     32701      5253  TIP3      H2            -20.2273925956       27.3083360604      -36.5284266300  TIP3      5117            0.0000000000
     32702      5254  TIP3      OH2           -23.3637602808       28.1927122879      -36.8932695358  TIP3      5118            0.0000000000
     32703      5254  TIP3      H1            -23.7449738676       29.0775852347      -36.9595698005  TIP3      5118            0.0000000000
     32704      5254  TIP3      H2            -23.7210883214       27.8619757653      -36.0255879299  TIP3      5118            0.0000000000
     32705      5255  TIP3      OH2           -22.7077914304       29.2405250296      -27.7396300438  TIP3      5119            0.0000000000
     32706      5255  TIP3      H1            -22.7900039983       29.2963223833      -26.7680359596  TIP3      5119            0.0000000000
     32707      5255  TIP3      H2            -22.3025215965       28.3728837961      -27.9136668849  TIP3      5119            0.0000000000
     32708      5256  TIP3      OH2           -22.4816805197       24.9953634683      -36.5387882268  TIP3      5120            0.0000000000
     32709      5256  TIP3      H1            -22.9490740089       25.3862906656      -35.7639635017  TIP3      5120            0.0000000000
     32710      5256  TIP3      H2            -21.8874394586       25.7667043362      -36.7493621647  TIP3      5120            0.0000000000
     32711      5257  TIP3      OH2           -27.4349903364       26.0148045640      -39.4456372282  TIP3      5121            0.0000000000
     32712      5257  TIP3      H1            -27.3812470879       26.8395739203      -38.9377398950  TIP3      5121            0.0000000000
     32713      5257  TIP3      H2            -26.8553867934       25.4403405704      -38.9263386237  TIP3      5121            0.0000000000
     32714      5258  TIP3      OH2           -17.3344117893       26.5894028182      -27.4350046832  TIP3      5122            0.0000000000
     32715      5258  TIP3      H1            -18.2379277918       26.9202459290      -27.6018893078  TIP3      5122            0.0000000000
     32716      5258  TIP3      H2            -17.0202656628       26.4593019105      -28.3424906223  TIP3      5122            0.0000000000
     32717      5259  TIP3      OH2           -18.2724324963       30.5712343005      -33.2490706711  TIP3      5123            0.0000000000
     32718      5259  TIP3      H1            -18.9317082675       30.1013300115      -32.7155868953  TIP3      5123            0.0000000000
     32719      5259  TIP3      H2            -17.4687401563       30.5026855294      -32.6886077031  TIP3      5123            0.0000000000
     32720      5260  TIP3      OH2           -30.0426963101       28.8281226118      -41.6946514096  TIP3      5124            0.0000000000
     32721      5260  TIP3      H1            -30.2909259742       29.7480978061      -41.4693885208  TIP3      5124            0.0000000000
     32722      5260  TIP3      H2            -30.9050288651       28.4679022697      -41.9341462263  TIP3      5124            0.0000000000
     32723      5261  TIP3      OH2           -30.2312699588       24.3266408393      -32.2295413313  TIP3      5125            0.0000000000
     32724      5261  TIP3      H1            -30.0222819518       24.1408357193      -33.1618588444  TIP3      5125            0.0000000000
     32725      5261  TIP3      H2            -30.3015402701       23.4081285318      -31.8842028215  TIP3      5125            0.0000000000
     32726      5262  TIP3      OH2           -31.5426137495       31.8627800488      -24.5720510915  TIP3      5126            0.0000000000
     32727      5262  TIP3      H1            -30.7560650611       31.3046161262      -24.4668717243  TIP3      5126            0.0000000000
     32728      5262  TIP3      H2            -31.7518512717       32.0610100791      -23.6499557950  TIP3      5126            0.0000000000
     32729      5263  TIP3      OH2           -25.9262867411       32.7312602860      -39.6664487506  TIP3      5127            0.0000000000
     32730      5263  TIP3      H1            -26.6848910243       32.2078387121      -39.3356578400  TIP3      5127            0.0000000000
     32731      5263  TIP3      H2            -25.5571521813       32.1745485154      -40.3859900537  TIP3      5127            0.0000000000
     32732      5264  TIP3      OH2           -26.4546650454       30.6568884896      -27.5089305721  TIP3      5128            0.0000000000
     32733      5264  TIP3      H1            -27.1262584580       31.3488461372      -27.6743994632  TIP3      5128            0.0000000000
     32734      5264  TIP3      H2            -25.8367702770       30.8377614378      -28.2564387874  TIP3      5128            0.0000000000
     32735      5265  TIP3      OH2           -25.0177868019       31.1095767190      -41.6911426617  TIP3      5129            0.0000000000
     32736      5265  TIP3      H1            -25.0201281804       31.0323065564      -42.6690569576  TIP3      5129            0.0000000000
     32737      5265  TIP3      H2            -24.0489513903       31.0096778758      -41.5287611779  TIP3      5129            0.0000000000
     32738      5266  TIP3      OH2           -25.7951004667       28.2752347371      -26.5946068111  TIP3      5130            0.0000000000
     32739      5266  TIP3      H1            -25.8006231385       27.6162624256      -27.3279884314  TIP3      5130            0.0000000000
     32740      5266  TIP3      H2            -26.0235354634       29.1061694274      -27.0697480915  TIP3      5130            0.0000000000
     32741      5267  TIP3      OH2           -25.4836394457       26.8209879520      -28.8398646844  TIP3      5131            0.0000000000
     32742      5267  TIP3      H1            -24.9609205376       27.4663139289      -29.3664189395  TIP3      5131            0.0000000000
     32743      5267  TIP3      H2            -26.2914324537       26.7989035126      -29.4008678304  TIP3      5131            0.0000000000
     32744      5268  TIP3      OH2           -24.4467332801       31.6637426770      -29.0246523952  TIP3      5132            0.0000000000
     32745      5268  TIP3      H1            -23.4897795363       31.7505602629      -29.1805278026  TIP3      5132            0.0000000000
     32746      5268  TIP3      H2            -24.7489921803       32.5906573680      -29.1252971958  TIP3      5132            0.0000000000
     32747      5269  TIP3      OH2           -20.1285098095       29.5634350559      -23.6020080201  TIP3      5133            0.0000000000
     32748      5269  TIP3      H1            -20.6066887736       28.9751041426      -24.2261562870  TIP3      5133            0.0000000000
     32749      5269  TIP3      H2            -19.3755904938       29.0190516696      -23.3322544807  TIP3      5133            0.0000000000
     32750      5270  TIP3      OH2           -18.8904834013      -32.9270585266      -26.1560335976  TIP3      5134            0.0000000000
     32751      5270  TIP3      H1            -19.0451835145      -32.1053032814      -25.6574229591  TIP3      5134            0.0000000000
     32752      5270  TIP3      H2            -18.0932059223      -33.2859038574      -25.7026287698  TIP3      5134            0.0000000000
     32753      5271  TIP3      OH2           -27.5331428071       28.4467633355      -24.3498939884  TIP3      5135            0.0000000000
     32754      5271  TIP3      H1            -28.4432835484       28.1178823097      -24.5304222191  TIP3      5135            0.0000000000
     32755      5271  TIP3      H2            -27.1182190691       28.4781507782      -25.2393569693  TIP3      5135            0.0000000000
     32756      5272  TIP3      OH2           -24.9840273896       24.0305987024      -29.3351489855  TIP3      5136            0.0000000000
     32757      5272  TIP3      H1            -25.3035338382       24.8941192744      -29.0054680230  TIP3      5136            0.0000000000
     32758      5272  TIP3      H2            -25.8255002534       23.5503262035      -29.3377026550  TIP3      5136            0.0000000000
     32759      5273  TIP3      OH2           -23.9736857375       28.1330346709      -24.5590951483  TIP3      5137            0.0000000000
     32760      5273  TIP3      H1            -24.5086872606       27.7668405761      -23.8158317094  TIP3      5137            0.0000000000
     32761      5273  TIP3      H2            -24.5807666951       27.9885968795      -25.3251313764  TIP3      5137            0.0000000000
     32762      5274  TIP3      OH2           -21.4064880193       27.7253942989      -25.2441584676  TIP3      5138            0.0000000000
     32763      5274  TIP3      H1            -22.3165243907       27.7064857491      -24.8692256321  TIP3      5138            0.0000000000
     32764      5274  TIP3      H2            -21.0660859575       26.8288951914      -25.0447058688  TIP3      5138            0.0000000000
     32765      5275  TIP3      OH2           -19.9688901702       25.5493966855      -23.8821010697  TIP3      5139            0.0000000000
     32766      5275  TIP3      H1            -19.0005289123       25.6077783245      -23.9371352006  TIP3      5139            0.0000000000
     32767      5275  TIP3      H2            -20.1469795316       26.0973162294      -23.0870168414  TIP3      5139            0.0000000000
     32768      5276  TIP3      OH2           -29.8348283941       26.8787304133      -24.2996351501  TIP3      5140            0.0000000000
     32769      5276  TIP3      H1            -29.5944306771       26.0676182797      -24.7866294140  TIP3      5140            0.0000000000
     32770      5276  TIP3      H2            -30.4020521963       26.5532209516      -23.5963977850  TIP3      5140            0.0000000000
     32771      5277  TIP3      OH2           -25.3884292249       23.3429561043      -26.2294290057  TIP3      5141            0.0000000000
     32772      5277  TIP3      H1            -24.9412876494       22.5051680355      -25.9948173227  TIP3      5141            0.0000000000
     32773      5277  TIP3      H2            -25.4078922909       23.2633201051      -27.1943058883  TIP3      5141            0.0000000000
     32774      5278  TIP3      OH2           -24.7068403073       24.3139180508      -23.7947591362  TIP3      5142            0.0000000000
     32775      5278  TIP3      H1            -24.9541373262       24.0246898664      -24.6977475949  TIP3      5142            0.0000000000
     32776      5278  TIP3      H2            -25.1567807089       25.1739127600      -23.7322630515  TIP3      5142            0.0000000000
     32777      5279  TIP3      OH2           -14.7841999150       32.7595680869      -36.3095253716  TIP3      5143            0.0000000000
     32778      5279  TIP3      H1            -15.4233397268       32.0265006918      -36.3542596612  TIP3      5143            0.0000000000
     32779      5279  TIP3      H2            -14.2838752226       32.4966511843      -35.5022153848  TIP3      5143            0.0000000000
     32780      5280  TIP3      OH2           -14.3440796727       32.1422181807      -40.1766630414  TIP3      5144            0.0000000000
     32781      5280  TIP3      H1            -15.1400478044       32.5526411391      -39.7694006957  TIP3      5144            0.0000000000
     32782      5280  TIP3      H2            -13.6572322918       32.6442804569      -39.6926905084  TIP3      5144            0.0000000000
     32783      5281  TIP3      OH2           -16.6119915175       29.5595940017      -41.2330939949  TIP3      5145            0.0000000000
     32784      5281  TIP3      H1            -16.4503712692       29.5874703111      -42.1871644742  TIP3      5145            0.0000000000
     32785      5281  TIP3      H2            -16.7436727289       28.6172759965      -41.0728688369  TIP3      5145            0.0000000000
     32786      5282  TIP3      OH2           -16.4355958417       30.7350001484      -35.3494162488  TIP3      5146            0.0000000000
     32787      5282  TIP3      H1            -16.6083989722       29.8168638274      -35.6317667655  TIP3      5146            0.0000000000
     32788      5282  TIP3      H2            -16.9483386349       30.7688645234      -34.5109998803  TIP3      5146            0.0000000000
     32789      5283  TIP3      OH2           -16.5293174349       32.5375697190      -24.8975845356  TIP3      5147            0.0000000000
     32790      5283  TIP3      H1            -15.8926463044       31.8170483576      -25.0510511610  TIP3      5147            0.0000000000
     32791      5283  TIP3      H2            -16.0050998656       33.3238536639      -25.1569053534  TIP3      5147            0.0000000000
     32792      5284  TIP3      OH2           -14.5791092487       30.3530360943      -25.4498637070  TIP3      5148            0.0000000000
     32793      5284  TIP3      H1            -15.3283619786       29.8408993138      -25.8177700208  TIP3      5148            0.0000000000
     32794      5284  TIP3      H2            -13.8371184460       29.7503272975      -25.6312511637  TIP3      5148            0.0000000000
     32795      5285  TIP3      OH2           -17.4576107432       28.5247043123      -36.5405913409  TIP3      5149            0.0000000000
     32796      5285  TIP3      H1            -17.1944031075       27.6410845909      -36.2587726733  TIP3      5149            0.0000000000
     32797      5285  TIP3      H2            -16.8720346901       28.7557568895      -37.2872509469  TIP3      5149            0.0000000000
     32798      5286  TIP3      OH2           -16.3769746297       29.1373169063      -31.8066200620  TIP3      5150            0.0000000000
     32799      5286  TIP3      H1            -15.3968916309       29.1800999829      -31.6680691171  TIP3      5150            0.0000000000
     32800      5286  TIP3      H2            -16.6793947082       29.1679039822      -30.8785345277  TIP3      5150            0.0000000000
     32801      5287  TIP3      OH2           -16.9254777447       29.7294169545      -29.2184002919  TIP3      5151            0.0000000000
     32802      5287  TIP3      H1            -17.7012147670       30.3173530866      -29.2665055967  TIP3      5151            0.0000000000
     32803      5287  TIP3      H2            -16.1930187599       30.3697302025      -29.3997037241  TIP3      5151            0.0000000000
     32804      5288  TIP3      OH2           -31.8007244042       28.3057728985      -26.1324698746  TIP3      5152            0.0000000000
     32805      5288  TIP3      H1            -31.1540365843       28.3146424156      -25.4116806704  TIP3      5152            0.0000000000
     32806      5288  TIP3      H2            -32.6426325278       28.2757017520      -25.6457147516  TIP3      5152            0.0000000000
     32807      5289  TIP3      OH2           -16.5565595095       25.1687007336      -37.1450760373  TIP3      5153            0.0000000000
     32808      5289  TIP3      H1            -16.2411584223       25.2979944409      -36.2202275285  TIP3      5153            0.0000000000
     32809      5289  TIP3      H2            -16.9427229254       26.0078910381      -37.3973577786  TIP3      5153            0.0000000000
     32810      5290  TIP3      OH2           -31.3641349412       26.7942423367      -32.2013735395  TIP3      5154            0.0000000000
     32811      5290  TIP3      H1            -31.1316006594       25.8385013704      -32.2188476561  TIP3      5154            0.0000000000
     32812      5290  TIP3      H2            -30.5072514043       27.1929026862      -31.9465465290  TIP3      5154            0.0000000000
     32813      5291  TIP3      OH2           -32.5673774340       29.7965895726      -30.8937879414  TIP3      5155            0.0000000000
     32814      5291  TIP3      H1            -31.9032360755       29.1460524232      -31.1682180448  TIP3      5155            0.0000000000
     32815      5291  TIP3      H2            -32.1515822965       30.6257055967      -31.1778469892  TIP3      5155            0.0000000000
     32816      5292  TIP3      OH2           -14.3193212716       26.7702028238      -25.4722235779  TIP3      5156            0.0000000000
     32817      5292  TIP3      H1            -14.5514155924       26.8118914050      -24.5255098563  TIP3      5156            0.0000000000
     32818      5292  TIP3      H2            -14.9533660025       26.1154133199      -25.8099733066  TIP3      5156            0.0000000000
     32819      5293  TIP3      OH2           -14.7521819033       25.8042656905      -40.6596437093  TIP3      5157            0.0000000000
     32820      5293  TIP3      H1            -13.9616246407       25.2536678983      -40.4893265677  TIP3      5157            0.0000000000
     32821      5293  TIP3      H2            -14.3750343304       26.6994549933      -40.5811145151  TIP3      5157            0.0000000000
     32822      5294  TIP3      OH2           -32.3196763927       25.3616230867      -37.7537697770  TIP3      5158            0.0000000000
     32823      5294  TIP3      H1            -32.2432441565       25.6151911450      -36.8104253168  TIP3      5158            0.0000000000
     32824      5294  TIP3      H2            -32.0593284624       26.1886483529      -38.2311348799  TIP3      5158            0.0000000000
     32825      5295  TIP3      OH2           -32.6657450124       24.3795452444      -29.2254220223  TIP3      5159            0.0000000000
     32826      5295  TIP3      H1            -33.5609517701       24.0375478297      -28.9867940908  TIP3      5159            0.0000000000
     32827      5295  TIP3      H2            -32.9042761493       25.2572725942      -29.5625718778  TIP3      5159            0.0000000000
     32828      5296  TIP3      OH2           -16.2422900298       23.3823392073      -27.5516833468  TIP3      5160            0.0000000000
     32829      5296  TIP3      H1            -17.1007918563       23.6033821206      -27.9237893032  TIP3      5160            0.0000000000
     32830      5296  TIP3      H2            -16.0343815748       22.4825190804      -27.9058267789  TIP3      5160            0.0000000000
     32831      5297  TIP3      OH2           -23.0427707579       25.2577854396      -33.8518337705  TIP3      5161            0.0000000000
     32832      5297  TIP3      H1            -23.8423178362       24.9037273744      -33.4077298558  TIP3      5161            0.0000000000
     32833      5297  TIP3      H2            -22.5362773102       24.4357323006      -33.9366279371  TIP3      5161            0.0000000000
     32834      5298  TIP3      OH2           -17.3173349249       23.5804695534      -33.2916622862  TIP3      5162            0.0000000000
     32835      5298  TIP3      H1            -16.5976845823       24.1100266110      -33.7023187509  TIP3      5162            0.0000000000
     32836      5298  TIP3      H2            -18.1072713397       23.9937418876      -33.7040614763  TIP3      5162            0.0000000000
     32837      5299  TIP3      OH2           -15.4107465303       24.8531571144      -34.7600978516  TIP3      5163            0.0000000000
     32838      5299  TIP3      H1            -14.8257961749       24.1880753044      -35.1953983953  TIP3      5163            0.0000000000
     32839      5299  TIP3      H2            -14.7616557342       25.5619485678      -34.5224316203  TIP3      5163            0.0000000000
     32840      5300  TIP3      OH2           -29.7083595340       23.8104960177      -35.1549077986  TIP3      5164            0.0000000000
     32841      5300  TIP3      H1            -30.5268720940       23.7392008952      -35.6826412554  TIP3      5164            0.0000000000
     32842      5300  TIP3      H2            -29.2479768567       22.9526430132      -35.3112866941  TIP3      5164            0.0000000000
     32843      5301  TIP3      OH2           -31.6963826226       23.5748754310      -39.6336737730  TIP3      5165            0.0000000000
     32844      5301  TIP3      H1            -30.9237534277       24.1162791750      -39.9038643331  TIP3      5165            0.0000000000
     32845      5301  TIP3      H2            -32.0354332206       24.1278298372      -38.8948437318  TIP3      5165            0.0000000000
     32846      5302  TIP3      OH2           -25.6866678571       23.4325663321      -35.5854587195  TIP3      5166            0.0000000000
     32847      5302  TIP3      H1            -24.8135830102       23.6144834419      -35.9492195077  TIP3      5166            0.0000000000
     32848      5302  TIP3      H2            -25.5998462696       23.7395504320      -34.6646103768  TIP3      5166            0.0000000000
     32849      5303  TIP3      OH2           -19.7495783092       23.8937445544      -34.8521014060  TIP3      5167            0.0000000000
     32850      5303  TIP3      H1            -20.5144842760       24.3431243971      -35.2271608019  TIP3      5167            0.0000000000
     32851      5303  TIP3      H2            -20.1544021315       23.1245094879      -34.3767418118  TIP3      5167            0.0000000000
     32852      5304  TIP3      OH2           -19.3942781763       24.8637184572      -38.7429797505  TIP3      5168            0.0000000000
     32853      5304  TIP3      H1            -19.8333828315       25.4412252069      -39.4011417416  TIP3      5168            0.0000000000
     32854      5304  TIP3      H2            -19.7380069549       25.3041415444      -37.9410689858  TIP3      5168            0.0000000000
     32855      5305  TIP3      OH2           -29.7391106722       25.0584749928      -41.0239313308  TIP3      5169            0.0000000000
     32856      5305  TIP3      H1            -29.3783390516       25.1664889477      -41.9144125238  TIP3      5169            0.0000000000
     32857      5305  TIP3      H2            -28.9771001905       25.3493780292      -40.4862180303  TIP3      5169            0.0000000000
     32858      5306  TIP3      OH2           -24.1358633019       25.9782057872      -38.5644359273  TIP3      5170            0.0000000000
     32859      5306  TIP3      H1            -23.5618423618       25.5765194643      -37.8840424537  TIP3      5170            0.0000000000
     32860      5306  TIP3      H2            -24.1193457429       26.8963066130      -38.2317688737  TIP3      5170            0.0000000000
     32861      5307  TIP3      OH2           -30.1124439498       24.4805157408      -26.2536890593  TIP3      5171            0.0000000000
     32862      5307  TIP3      H1            -30.7735978943       23.8615496984      -25.8942255783  TIP3      5171            0.0000000000
     32863      5307  TIP3      H2            -29.3295714423       24.1864649591      -25.7461952977  TIP3      5171            0.0000000000
     32864      5308  TIP3      OH2           -28.1741447469       23.8695147208      -24.3614351156  TIP3      5172            0.0000000000
     32865      5308  TIP3      H1            -27.3763977127       23.7663186876      -24.9086553637  TIP3      5172            0.0000000000
     32866      5308  TIP3      H2            -28.1138406368       23.0252454391      -23.8780458051  TIP3      5172            0.0000000000
     32867      5309  TIP3      OH2            -2.6588276793       32.2471537408      -32.8843271564  TIP3      5173            0.0000000000
     32868      5309  TIP3      H1             -2.0356539406       31.9301944917      -32.2066166403  TIP3      5173            0.0000000000
     32869      5309  TIP3      H2             -3.3667372813       31.5855794825      -32.8216472417  TIP3      5173            0.0000000000
     32870      5310  TIP3      OH2           -11.2122225988       32.2886572475      -31.0767794315  TIP3      5174            0.0000000000
     32871      5310  TIP3      H1            -11.0347483512       31.4456770238      -30.6282143650  TIP3      5174            0.0000000000
     32872      5310  TIP3      H2            -10.8708348216       32.9243700956      -30.4364831294  TIP3      5174            0.0000000000
     32873      5311  TIP3      OH2           -13.3323109113       29.8744069771      -36.5913451453  TIP3      5175            0.0000000000
     32874      5311  TIP3      H1            -13.2686934421       30.6344227156      -35.9663822313  TIP3      5175            0.0000000000
     32875      5311  TIP3      H2            -14.2959846882       29.7619898837      -36.5959485410  TIP3      5175            0.0000000000
     32876      5312  TIP3      OH2           -12.7252099431       31.8229597752      -34.8361829198  TIP3      5176            0.0000000000
     32877      5312  TIP3      H1            -12.4736281081       31.2596887248      -34.0656852303  TIP3      5176            0.0000000000
     32878      5312  TIP3      H2            -11.9040678984       32.3044799354      -35.0042942811  TIP3      5176            0.0000000000
     32879      5313  TIP3      OH2             3.3824078747       26.6173432767      -31.2943762128  TIP3      5177            0.0000000000
     32880      5313  TIP3      H1              3.3006327588       27.2129329135      -30.5215760671  TIP3      5177            0.0000000000
     32881      5313  TIP3      H2              4.3557403398       26.5592529117      -31.3366120472  TIP3      5177            0.0000000000
     32882      5314  TIP3      OH2            -1.6557028073       29.5708344923      -31.2984714082  TIP3      5178            0.0000000000
     32883      5314  TIP3      H1             -1.5373522133       28.6118773735      -31.1248482279  TIP3      5178            0.0000000000
     32884      5314  TIP3      H2             -1.9566031353       29.5437716510      -32.2377757415  TIP3      5178            0.0000000000
     32885      5315  TIP3      OH2            -8.8716782766       26.7686115839      -34.0516430127  TIP3      5179            0.0000000000
     32886      5315  TIP3      H1             -8.3661979123       27.4810630941      -34.4932283620  TIP3      5179            0.0000000000
     32887      5315  TIP3      H2             -8.9392242376       26.1341817759      -34.7755696697  TIP3      5179            0.0000000000
     32888      5316  TIP3      OH2            -1.0079047310       27.3456718053      -35.3190681150  TIP3      5180            0.0000000000
     32889      5316  TIP3      H1             -0.5702811315       26.9099887187      -34.5641537643  TIP3      5180            0.0000000000
     32890      5316  TIP3      H2             -0.4348590640       28.1196024085      -35.4375225602  TIP3      5180            0.0000000000
     32891      5317  TIP3      OH2           -12.0624008849       29.6596828493      -33.4586482237  TIP3      5181            0.0000000000
     32892      5317  TIP3      H1            -11.4722887526       29.1572488908      -32.8674075903  TIP3      5181            0.0000000000
     32893      5317  TIP3      H2            -11.7703583724       29.2768132570      -34.3079215432  TIP3      5181            0.0000000000
     32894      5318  TIP3      OH2            -6.7954955576       31.4351545925      -33.9314463388  TIP3      5182            0.0000000000
     32895      5318  TIP3      H1             -6.1020867985       30.7803227836      -33.7089152067  TIP3      5182            0.0000000000
     32896      5318  TIP3      H2             -7.3960897628       30.8486823153      -34.4190073968  TIP3      5182            0.0000000000
     32897      5319  TIP3      OH2             3.5579421026       27.9432749545      -28.8138346017  TIP3      5183            0.0000000000
     32898      5319  TIP3      H1              3.0022422754       28.6993458630      -29.1176093657  TIP3      5183            0.0000000000
     32899      5319  TIP3      H2              3.9173974888       28.3128116769      -27.9850154590  TIP3      5183            0.0000000000
     32900      5320  TIP3      OH2            -9.3792793237       26.4643459363      -29.8917964473  TIP3      5184            0.0000000000
     32901      5320  TIP3      H1             -9.7863132612       26.9879007145      -30.6139652252  TIP3      5184            0.0000000000
     32902      5320  TIP3      H2            -10.1432984304       26.4459025585      -29.2735270620  TIP3      5184            0.0000000000
     32903      5321  TIP3      OH2             1.1238747351       27.3788913716      -33.0181921771  TIP3      5185            0.0000000000
     32904      5321  TIP3      H1              1.8717758067       26.7692162039      -32.9751306198  TIP3      5185            0.0000000000
     32905      5321  TIP3      H2              1.5159803092       28.1083299500      -32.4849469749  TIP3      5185            0.0000000000
     32906      5322  TIP3      OH2           -10.1302956418       28.1381955127      -31.9632062824  TIP3      5186            0.0000000000
     32907      5322  TIP3      H1             -9.4695046001       28.7170053652      -31.5094778656  TIP3      5186            0.0000000000
     32908      5322  TIP3      H2             -9.6523326889       27.9054961123      -32.7919451754  TIP3      5186            0.0000000000
     32909      5323  TIP3      OH2             0.8284975551       25.6992026017      -30.4300212940  TIP3      5187            0.0000000000
     32910      5323  TIP3      H1              0.3817538158       25.8813014959      -31.2733757594  TIP3      5187            0.0000000000
     32911      5323  TIP3      H2              1.7077527848       26.0881480240      -30.5923251565  TIP3      5187            0.0000000000
     32912      5324  TIP3      OH2            -6.4055923828       23.4511799475      -32.3612082515  TIP3      5188            0.0000000000
     32913      5324  TIP3      H1             -6.7343444794       22.5329008614      -32.2520759665  TIP3      5188            0.0000000000
     32914      5324  TIP3      H2             -7.2221616824       23.9661652016      -32.1497883400  TIP3      5188            0.0000000000
     32915      5325  TIP3      OH2            -3.7936193372       32.1320583349      -38.0738582313  TIP3      5189            0.0000000000
     32916      5325  TIP3      H1             -3.9393287730       32.9996899088      -37.6489294661  TIP3      5189            0.0000000000
     32917      5325  TIP3      H2             -2.9527462454       32.2817982341      -38.5547903939  TIP3      5189            0.0000000000
     32918      5326  TIP3      OH2            -3.0657844947       31.2948852255      -41.3593672337  TIP3      5190            0.0000000000
     32919      5326  TIP3      H1             -2.4971602032       31.8278581502      -40.7683198527  TIP3      5190            0.0000000000
     32920      5326  TIP3      H2             -3.1245357104       30.4560065238      -40.8810112664  TIP3      5190            0.0000000000
     32921      5327  TIP3      OH2             3.6256605718       31.8040231587      -29.4952132856  TIP3      5191            0.0000000000
     32922      5327  TIP3      H1              4.1361735627       32.6503318075      -29.5721266716  TIP3      5191            0.0000000000
     32923      5327  TIP3      H2              3.7274364106       31.4592494513      -30.3999295747  TIP3      5191            0.0000000000
     32924      5328  TIP3      OH2             0.0945800272       32.0197436868      -36.6738552750  TIP3      5192            0.0000000000
     32925      5328  TIP3      H1             -0.3702864634       32.2159343779      -35.8305303614  TIP3      5192            0.0000000000
     32926      5328  TIP3      H2              1.0024087062       31.8331928114      -36.3602227616  TIP3      5192            0.0000000000
     32927      5329  TIP3      OH2            -0.2113411225       31.2138237889      -28.3075476412  TIP3      5193            0.0000000000
     32928      5329  TIP3      H1             -0.1847161387       31.9768960620      -27.6986530390  TIP3      5193            0.0000000000
     32929      5329  TIP3      H2             -1.0918102962       31.3313301004      -28.7186192095  TIP3      5193            0.0000000000
     32930      5330  TIP3      OH2            -7.9619259054       31.7358632388      -31.4374126401  TIP3      5194            0.0000000000
     32931      5330  TIP3      H1             -7.6453382541       31.4432143005      -32.3187926758  TIP3      5194            0.0000000000
     32932      5330  TIP3      H2             -7.9870953167       32.6987975596      -31.6199526744  TIP3      5194            0.0000000000
     32933      5331  TIP3      OH2            -1.3107051144       31.9528259762      -39.0615333322  TIP3      5195            0.0000000000
     32934      5331  TIP3      H1             -0.7859880726       31.9322853825      -38.2336518457  TIP3      5195            0.0000000000
     32935      5331  TIP3      H2             -0.6642673350       32.3727437318      -39.6833956510  TIP3      5195            0.0000000000
     32936      5332  TIP3      OH2            -9.4062066919       32.5720887909      -27.5620960118  TIP3      5196            0.0000000000
     32937      5332  TIP3      H1             -9.1069954653       32.9641686548      -26.7159918820  TIP3      5196            0.0000000000
     32938      5332  TIP3      H2            -10.3421251572       32.8082039783      -27.5427239565  TIP3      5196            0.0000000000
     32939      5333  TIP3      OH2             2.7992786679       23.9947191014      -38.9248670022  TIP3      5197            0.0000000000
     32940      5333  TIP3      H1              1.8552403464       24.0710265854      -38.6751349703  TIP3      5197            0.0000000000
     32941      5333  TIP3      H2              2.8727238496       24.7135640741      -39.5776996370  TIP3      5197            0.0000000000
     32942      5334  TIP3      OH2            -9.6792876150       31.9877265500      -36.9041234199  TIP3      5198            0.0000000000
     32943      5334  TIP3      H1             -8.8177616205       32.3867253012      -37.1177203879  TIP3      5198            0.0000000000
     32944      5334  TIP3      H2            -10.0069596551       31.6454315574      -37.7500486064  TIP3      5198            0.0000000000
     32945      5335  TIP3      OH2             1.7504592241       29.2937495379      -25.8709044836  TIP3      5199            0.0000000000
     32946      5335  TIP3      H1              0.9528845392       29.5431536724      -26.3776249859  TIP3      5199            0.0000000000
     32947      5335  TIP3      H2              1.4034926223       28.4666879847      -25.4939476290  TIP3      5199            0.0000000000
     32948      5336  TIP3      OH2            -8.6588733011       24.7065469709      -31.7468328595  TIP3      5200            0.0000000000
     32949      5336  TIP3      H1             -8.9692810937       25.3629315704      -32.3963274231  TIP3      5200            0.0000000000
     32950      5336  TIP3      H2             -8.7213496391       25.2601018203      -30.9368066796  TIP3      5200            0.0000000000
     32951      5337  TIP3      OH2            -3.7674572913       23.9104392462      -28.5196956541  TIP3      5201            0.0000000000
     32952      5337  TIP3      H1             -3.4066210559       23.8597798863      -27.6128768629  TIP3      5201            0.0000000000
     32953      5337  TIP3      H2             -4.7344029053       24.0130098258      -28.3659659306  TIP3      5201            0.0000000000
     32954      5338  TIP3      OH2            -0.6335564577       28.5764586922      -26.7999352926  TIP3      5202            0.0000000000
     32955      5338  TIP3      H1             -1.4314511171       28.0773768505      -26.5289697184  TIP3      5202            0.0000000000
     32956      5338  TIP3      H2             -0.9753074546       29.4283835020      -27.1128056166  TIP3      5202            0.0000000000
     32957      5339  TIP3      OH2             0.0873656224       32.7030982618      -41.1253433903  TIP3      5203            0.0000000000
     32958      5339  TIP3      H1              0.5039770043       32.2862801696      -41.8860797849  TIP3      5203            0.0000000000
     32959      5339  TIP3      H2              0.8339756783       33.2600910391      -40.7875320852  TIP3      5203            0.0000000000
     32960      5340  TIP3      OH2            -4.3182818920       26.5532680332      -40.7236035903  TIP3      5204            0.0000000000
     32961      5340  TIP3      H1             -4.1443917328       26.8723551615      -39.8185930583  TIP3      5204            0.0000000000
     32962      5340  TIP3      H2             -3.4228667953       26.2969230353      -40.9981821980  TIP3      5204            0.0000000000
     32963      5341  TIP3      OH2            -8.3092667822       29.3024129993      -30.4104121452  TIP3      5205            0.0000000000
     32964      5341  TIP3      H1             -9.0216539684       29.4719330375      -29.7633453720  TIP3      5205            0.0000000000
     32965      5341  TIP3      H2             -8.1701383429       30.2123910104      -30.7517489226  TIP3      5205            0.0000000000
     32966      5342  TIP3      OH2            -8.3492080153       29.2745951652      -35.2190210647  TIP3      5206            0.0000000000
     32967      5342  TIP3      H1             -9.2809236395       29.1091459942      -35.5082067112  TIP3      5206            0.0000000000
     32968      5342  TIP3      H2             -7.9432866955       29.5690798295      -36.0386377414  TIP3      5206            0.0000000000
     32969      5343  TIP3      OH2            -2.7220647808       30.3594924433      -36.3699239698  TIP3      5207            0.0000000000
     32970      5343  TIP3      H1             -3.1927610559       30.9957354541      -36.9660254770  TIP3      5207            0.0000000000
     32971      5343  TIP3      H2             -1.9917163477       30.0637274091      -36.9284136123  TIP3      5207            0.0000000000
     32972      5344  TIP3      OH2            -4.1401928749       30.7159008701      -25.4589314481  TIP3      5208            0.0000000000
     32973      5344  TIP3      H1             -4.4432768420       30.0950046482      -24.7702284982  TIP3      5208            0.0000000000
     32974      5344  TIP3      H2             -3.2009225424       30.7815799305      -25.1967554899  TIP3      5208            0.0000000000
     32975      5345  TIP3      OH2            -2.5457723581       29.3331949154      -33.8071274029  TIP3      5209            0.0000000000
     32976      5345  TIP3      H1             -2.5835108685       29.8198053880      -34.6590176595  TIP3      5209            0.0000000000
     32977      5345  TIP3      H2             -2.1852569320       28.4812242884      -34.1058747969  TIP3      5209            0.0000000000
     32978      5346  TIP3      OH2           -10.9435108605       29.6205331812      -29.3279771029  TIP3      5210            0.0000000000
     32979      5346  TIP3      H1            -10.6893204516       29.7985785181      -28.4043946196  TIP3      5210            0.0000000000
     32980      5346  TIP3      H2            -11.2921577965       28.7035210152      -29.2775434063  TIP3      5210            0.0000000000
     32981      5347  TIP3      OH2            -7.4801517007       27.7451305333      -41.7576805551  TIP3      5211            0.0000000000
     32982      5347  TIP3      H1             -8.3732534311       27.5816357843      -41.3993260634  TIP3      5211            0.0000000000
     32983      5347  TIP3      H2             -7.5714869338       28.6964980195      -41.9490440282  TIP3      5211            0.0000000000
     32984      5348  TIP3      OH2           -13.7329732780       26.7947864684      -34.0002994561  TIP3      5212            0.0000000000
     32985      5348  TIP3      H1            -13.2013311877       26.7617111241      -33.1674389546  TIP3      5212            0.0000000000
     32986      5348  TIP3      H2            -13.1033662399       26.9999869302      -34.6944585897  TIP3      5212            0.0000000000
     32987      5349  TIP3      OH2           -13.1184402588       27.8417512294      -39.4328773924  TIP3      5213            0.0000000000
     32988      5349  TIP3      H1            -12.3112213360       28.2338288969      -39.8176074820  TIP3      5213            0.0000000000
     32989      5349  TIP3      H2            -13.3661901093       28.4849389074      -38.7481717531  TIP3      5213            0.0000000000
     32990      5350  TIP3      OH2            -2.7398391211       31.0795856753      -29.4224831315  TIP3      5214            0.0000000000
     32991      5350  TIP3      H1             -2.3747755222       30.6220813274      -30.2193864285  TIP3      5214            0.0000000000
     32992      5350  TIP3      H2             -3.1290924608       30.3059690535      -28.9549570015  TIP3      5214            0.0000000000
     32993      5351  TIP3      OH2            -5.3856287207       26.9926355256      -34.3407411452  TIP3      5215            0.0000000000
     32994      5351  TIP3      H1             -5.6346770805       27.6405558408      -33.6697843396  TIP3      5215            0.0000000000
     32995      5351  TIP3      H2             -5.0408770196       26.2384958064      -33.8171979561  TIP3      5215            0.0000000000
     32996      5352  TIP3      OH2           -10.8507732260       28.5854220281      -35.7831970125  TIP3      5216            0.0000000000
     32997      5352  TIP3      H1            -11.5222729521       28.9885743600      -36.3830230756  TIP3      5216            0.0000000000
     32998      5352  TIP3      H2            -10.8927102924       27.6398381856      -36.0011273303  TIP3      5216            0.0000000000
     32999      5353  TIP3      OH2            -7.2652475563       28.6397199877      -38.3780338821  TIP3      5217            0.0000000000
     33000      5353  TIP3      H1             -6.5511799649       29.0818771347      -37.8867679987  TIP3      5217            0.0000000000
     33001      5353  TIP3      H2             -7.5894534137       29.3379813900      -38.9637827089  TIP3      5217            0.0000000000
     33002      5354  TIP3      OH2            -1.6494329082       26.5606585960      -31.7716896944  TIP3      5218            0.0000000000
     33003      5354  TIP3      H1             -1.8299514196       26.1630700485      -30.8905063886  TIP3      5218            0.0000000000
     33004      5354  TIP3      H2             -1.6684643248       25.8118985666      -32.3880076430  TIP3      5218            0.0000000000
     33005      5355  TIP3      OH2            -8.6365664888       30.3983596976      -41.1439714643  TIP3      5219            0.0000000000
     33006      5355  TIP3      H1             -9.3640075552       30.4961092690      -41.7875599677  TIP3      5219            0.0000000000
     33007      5355  TIP3      H2             -7.8573412042       30.6792253877      -41.6692156004  TIP3      5219            0.0000000000
     33008      5356  TIP3      OH2            -5.0907355798       29.3906907092      -32.8969778289  TIP3      5220            0.0000000000
     33009      5356  TIP3      H1             -4.1565130184       29.1547289843      -33.1001094781  TIP3      5220            0.0000000000
     33010      5356  TIP3      H2             -5.2445296990       28.9572795760      -32.0303499367  TIP3      5220            0.0000000000
     33011      5357  TIP3      OH2            -9.7886629790       25.2437180862      -36.8168513868  TIP3      5221            0.0000000000
     33012      5357  TIP3      H1            -10.4443204231       25.0019945066      -36.1219531540  TIP3      5221            0.0000000000
     33013      5357  TIP3      H2             -9.3198217733       24.3993738433      -36.8684599397  TIP3      5221            0.0000000000
     33014      5358  TIP3      OH2            -5.4559431227       28.2268441024      -30.1803464030  TIP3      5222            0.0000000000
     33015      5358  TIP3      H1             -6.2460141014       28.7751790185      -30.0358993819  TIP3      5222            0.0000000000
     33016      5358  TIP3      H2             -4.8438936573       28.5947641449      -29.5098831419  TIP3      5222            0.0000000000
     33017      5359  TIP3      OH2            -1.7098669806       27.2800590446      -40.2101528843  TIP3      5223            0.0000000000
     33018      5359  TIP3      H1             -2.0984770644       28.1354550127      -40.4070901435  TIP3      5223            0.0000000000
     33019      5359  TIP3      H2             -0.8291344966       27.5603666515      -39.9245414995  TIP3      5223            0.0000000000
     33020      5360  TIP3      OH2            -0.3053494363       29.1501170208      -38.5940823420  TIP3      5224            0.0000000000
     33021      5360  TIP3      H1              0.2891830199       29.3487982777      -37.8459584807  TIP3      5224            0.0000000000
     33022      5360  TIP3      H2             -0.4764712218       30.0403414118      -38.9278502777  TIP3      5224            0.0000000000
     33023      5361  TIP3      OH2           -13.1030248675       32.3225472027      -27.3951168803  TIP3      5225            0.0000000000
     33024      5361  TIP3      H1            -12.7359476254       31.6458436335      -26.8007903589  TIP3      5225            0.0000000000
     33025      5361  TIP3      H2            -13.9946239122       31.9729245416      -27.5513860555  TIP3      5225            0.0000000000
     33026      5362  TIP3      OH2            -6.8545366804       31.5001958703      -25.3760383466  TIP3      5226            0.0000000000
     33027      5362  TIP3      H1             -6.7376942345       30.9933314730      -26.2068140036  TIP3      5226            0.0000000000
     33028      5362  TIP3      H2             -6.0187019019       31.3563517725      -24.9140173707  TIP3      5226            0.0000000000
     33029      5363  TIP3      OH2             3.5440942064       29.9126998709      -38.2669929884  TIP3      5227            0.0000000000
     33030      5363  TIP3      H1              3.5909813470       29.2739037289      -38.9976604822  TIP3      5227            0.0000000000
     33031      5363  TIP3      H2              3.7850751614       30.7353552123      -38.7325798788  TIP3      5227            0.0000000000
     33032      5364  TIP3      OH2           -12.0049813441       31.1011292664      -41.1066956295  TIP3      5228            0.0000000000
     33033      5364  TIP3      H1            -11.8171563686       32.0419301606      -40.9922530600  TIP3      5228            0.0000000000
     33034      5364  TIP3      H2            -12.9824415161       31.1545191933      -41.1781785343  TIP3      5228            0.0000000000
     33035      5365  TIP3      OH2           -11.5386380721       27.0121565511      -28.2715521698  TIP3      5229            0.0000000000
     33036      5365  TIP3      H1            -11.8813511165       27.7058344137      -27.6606837712  TIP3      5229            0.0000000000
     33037      5365  TIP3      H2            -11.8403824500       26.2384922473      -27.7670750606  TIP3      5229            0.0000000000
     33038      5366  TIP3      OH2            -2.1007787189       25.9639698819      -29.0448226769  TIP3      5230            0.0000000000
     33039      5366  TIP3      H1             -1.9485420995       26.2418739511      -28.1311110106  TIP3      5230            0.0000000000
     33040      5366  TIP3      H2             -2.6615595494       25.1704168281      -28.9216426104  TIP3      5230            0.0000000000
     33041      5367  TIP3      OH2            -2.2673692441       26.3456043647      -37.6299279436  TIP3      5231            0.0000000000
     33042      5367  TIP3      H1             -2.1029511370       26.9946570506      -38.3287617749  TIP3      5231            0.0000000000
     33043      5367  TIP3      H2             -1.8732410374       26.8005018278      -36.8563194284  TIP3      5231            0.0000000000
     33044      5368  TIP3      OH2            -4.7890990955       28.5408704222      -36.4545872396  TIP3      5232            0.0000000000
     33045      5368  TIP3      H1             -4.0439095541       29.1139119861      -36.1588321738  TIP3      5232            0.0000000000
     33046      5368  TIP3      H2             -4.9763675516       27.9907076280      -35.6572491096  TIP3      5232            0.0000000000
     33047      5369  TIP3      OH2            -3.8683218715       29.0377683529      -27.9615693328  TIP3      5233            0.0000000000
     33048      5369  TIP3      H1             -4.0416045242       29.4757583196      -27.1044271657  TIP3      5233            0.0000000000
     33049      5369  TIP3      H2             -3.5439120196       28.1624355268      -27.6890265561  TIP3      5233            0.0000000000
     33050      5370  TIP3      OH2            -3.8466719867       24.6865309568      -36.2056391414  TIP3      5234            0.0000000000
     33051      5370  TIP3      H1             -3.9985244290       24.8292032975      -35.2532892154  TIP3      5234            0.0000000000
     33052      5370  TIP3      H2             -3.2110068876       25.4023515903      -36.4143636291  TIP3      5234            0.0000000000
     33053      5371  TIP3      OH2            -8.8555864056       26.3814569077      -39.1976457366  TIP3      5235            0.0000000000
     33054      5371  TIP3      H1             -8.6743568484       27.2723155789      -38.8311700996  TIP3      5235            0.0000000000
     33055      5371  TIP3      H2             -8.9422028320       25.8743033821      -38.3606633991  TIP3      5235            0.0000000000
     33056      5372  TIP3      OH2             1.7653657520       26.5287834250      -27.3236074540  TIP3      5236            0.0000000000
     33057      5372  TIP3      H1              0.9509551350       27.0571114219      -27.4091987801  TIP3      5236            0.0000000000
     33058      5372  TIP3      H2              2.2890661810       26.9682685659      -28.0304784021  TIP3      5236            0.0000000000
     33059      5373  TIP3      OH2             0.6040935879       30.6197638728      -33.2930202966  TIP3      5237            0.0000000000
     33060      5373  TIP3      H1             -0.0131463276       30.1617859132      -32.7041326579  TIP3      5237            0.0000000000
     33061      5373  TIP3      H2              1.4374374203       30.1843326404      -33.0068209724  TIP3      5237            0.0000000000
     33062      5374  TIP3      OH2           -10.8219720088       28.5747419859      -41.7087975315  TIP3      5238            0.0000000000
     33063      5374  TIP3      H1            -11.0801041135       29.4804025595      -41.4018522308  TIP3      5238            0.0000000000
     33064      5374  TIP3      H2            -11.6671318637       28.2452741887      -42.0431213625  TIP3      5238            0.0000000000
     33065      5375  TIP3      OH2           -11.4682535833       24.2191053336      -32.1304020143  TIP3      5239            0.0000000000
     33066      5375  TIP3      H1            -11.1861531947       24.1035145370      -33.0599522612  TIP3      5239            0.0000000000
     33067      5375  TIP3      H2            -11.6001637873       23.2874191840      -31.8604827247  TIP3      5239            0.0000000000
     33068      5376  TIP3      OH2           -11.5665380301       31.5457037751      -25.1331281918  TIP3      5240            0.0000000000
     33069      5376  TIP3      H1            -11.5381869975       30.6102220853      -24.8882137040  TIP3      5240            0.0000000000
     33070      5376  TIP3      H2            -12.2345930674       31.8391596843      -24.4982130416  TIP3      5240            0.0000000000
     33071      5377  TIP3      OH2            -7.1109354647       32.8700217301      -39.8663062103  TIP3      5241            0.0000000000
     33072      5377  TIP3      H1             -7.8519914550       32.3630075637      -40.2169610167  TIP3      5241            0.0000000000
     33073      5377  TIP3      H2             -6.3781781958       32.4271344518      -40.3194875596  TIP3      5241            0.0000000000
     33074      5378  TIP3      OH2            -7.7253080172       30.4127697096      -27.6505815045  TIP3      5242            0.0000000000
     33075      5378  TIP3      H1             -8.3414571384       31.1771945709      -27.6663815853  TIP3      5242            0.0000000000
     33076      5378  TIP3      H2             -7.0084872002       30.7414066134      -28.2435664877  TIP3      5242            0.0000000000
     33077      5379  TIP3      OH2            -6.0005743413       31.1508909600      -41.8316763363  TIP3      5243            0.0000000000
     33078      5379  TIP3      H1             -5.9906001696       31.0403205636      -42.8002826352  TIP3      5243            0.0000000000
     33079      5379  TIP3      H2             -5.0407444616       31.1953221293      -41.6287375323  TIP3      5243            0.0000000000
     33080      5380  TIP3      OH2            -7.0658304166       28.1449009867      -26.4779364615  TIP3      5244            0.0000000000
     33081      5380  TIP3      H1             -7.2454186838       27.4324499772      -27.1452234127  TIP3      5244            0.0000000000
     33082      5380  TIP3      H2             -7.3197235312       28.9572806817      -26.9797711431  TIP3      5244            0.0000000000
     33083      5381  TIP3      OH2            -7.0638811342       26.5219204708      -28.5997792849  TIP3      5245            0.0000000000
     33084      5381  TIP3      H1             -6.3980374737       27.0173377424      -29.1232525540  TIP3      5245            0.0000000000
     33085      5381  TIP3      H2             -7.8466452489       26.6000221379      -29.1919246739  TIP3      5245            0.0000000000
     33086      5382  TIP3      OH2            -5.5355906805       31.3289391006      -28.8961247586  TIP3      5246            0.0000000000
     33087      5382  TIP3      H1             -4.5946094336       31.2883931183      -29.1306093090  TIP3      5246            0.0000000000
     33088      5382  TIP3      H2             -5.6762942399       32.2966433239      -28.8565719441  TIP3      5246            0.0000000000
     33089      5383  TIP3      OH2            -1.8055232042       30.1730039771      -24.3401140031  TIP3      5247            0.0000000000
     33090      5383  TIP3      H1             -1.8449570998       29.2041702670      -24.3512841233  TIP3      5247            0.0000000000
     33091      5383  TIP3      H2             -1.3487233993       30.3366385059      -23.4975886439  TIP3      5247            0.0000000000
     33092      5384  TIP3      OH2            -0.0149564869      -33.0106898542      -26.3430053728  TIP3      5248            0.0000000000
     33093      5384  TIP3      H1             -0.4329069333      -32.3100862706      -25.8234282830  TIP3      5248            0.0000000000
     33094      5384  TIP3      H2              0.6867438667      -33.2588600052      -25.7154786555  TIP3      5248            0.0000000000
     33095      5385  TIP3      OH2            -8.7426734243       28.8334053044      -24.4676137283  TIP3      5249            0.0000000000
     33096      5385  TIP3      H1             -9.5775907194       28.6379642966      -24.9187613400  TIP3      5249            0.0000000000
     33097      5385  TIP3      H2             -8.0968011561       28.6439440566      -25.1901090445  TIP3      5249            0.0000000000
     33098      5386  TIP3      OH2            -6.4601608968       23.8668883782      -28.8469917424  TIP3      5250            0.0000000000
     33099      5386  TIP3      H1             -6.8105820877       24.7640233719      -28.6348344225  TIP3      5250            0.0000000000
     33100      5386  TIP3      H2             -7.2751729834       23.3644284431      -29.0153229711  TIP3      5250            0.0000000000
     33101      5387  TIP3      OH2            -5.1149035018       28.1669040625      -24.7300729483  TIP3      5251            0.0000000000
     33102      5387  TIP3      H1             -5.6836865903       28.3736681351      -23.9722042312  TIP3      5251            0.0000000000
     33103      5387  TIP3      H2             -5.7995266856       27.9586964218      -25.4203275068  TIP3      5251            0.0000000000
     33104      5388  TIP3      OH2            -2.8430774717       27.2263187714      -25.9272242659  TIP3      5252            0.0000000000
     33105      5388  TIP3      H1             -3.7055774291       27.4862505736      -25.5298699006  TIP3      5252            0.0000000000
     33106      5388  TIP3      H2             -2.4404691502       26.7314916148      -25.1700267513  TIP3      5252            0.0000000000
     33107      5389  TIP3      OH2            -1.4710823054       26.0311764471      -23.8698615264  TIP3      5253            0.0000000000
     33108      5389  TIP3      H1             -1.2897832533       25.0718624316      -23.9987088726  TIP3      5253            0.0000000000
     33109      5389  TIP3      H2             -0.9725395293       26.1587255925      -23.0230858646  TIP3      5253            0.0000000000
     33110      5390  TIP3      OH2           -11.2830150749       27.0364514700      -24.1937322134  TIP3      5254            0.0000000000
     33111      5390  TIP3      H1            -11.2407489782       26.2725931654      -24.8019541176  TIP3      5254            0.0000000000
     33112      5390  TIP3      H2            -12.1412094931       26.8940638445      -23.7314991172  TIP3      5254            0.0000000000
     33113      5391  TIP3      OH2            -6.4201079127       23.5078449624      -26.1378403435  TIP3      5255            0.0000000000
     33114      5391  TIP3      H1             -5.7059662773       22.8977517481      -25.8866152873  TIP3      5255            0.0000000000
     33115      5391  TIP3      H2             -6.4970613782       23.3534540742      -27.0994962951  TIP3      5255            0.0000000000
     33116      5392  TIP3      OH2             3.9815469046       32.8163647403      -36.5421666254  TIP3      5256            0.0000000000
     33117      5392  TIP3      H1              3.4091529531       32.0434162438      -36.3841302198  TIP3      5256            0.0000000000
     33118      5392  TIP3      H2              4.4695436899       32.8094031061      -35.6993944504  TIP3      5256            0.0000000000
     33119      5393  TIP3      OH2             4.5096758703       32.0480052494      -40.4036972493  TIP3      5257            0.0000000000
     33120      5393  TIP3      H1              3.5425185617       32.1758731444      -40.3783433682  TIP3      5257            0.0000000000
     33121      5393  TIP3      H2              4.8380299879       32.6767768548      -39.7211730134  TIP3      5257            0.0000000000
     33122      5394  TIP3      OH2             2.6770890665       29.5634438202      -41.4925793826  TIP3      5258            0.0000000000
     33123      5394  TIP3      H1              2.8456394848       29.6714802943      -42.4425753774  TIP3      5258            0.0000000000
     33124      5394  TIP3      H2              2.4663022027       28.6292519681      -41.4088838861  TIP3      5258            0.0000000000
     33125      5395  TIP3      OH2             2.4357039165       30.9682107664      -35.3171349302  TIP3      5259            0.0000000000
     33126      5395  TIP3      H1              2.2611456025       30.0601011658      -35.6336317033  TIP3      5259            0.0000000000
     33127      5395  TIP3      H2              1.7868122477       31.0019456521      -34.5800206313  TIP3      5259            0.0000000000
     33128      5396  TIP3      OH2             2.1385743553       33.0355464330      -24.5084043252  TIP3      5260            0.0000000000
     33129      5396  TIP3      H1              2.5840904665       32.3499006961      -25.0323089675  TIP3      5260            0.0000000000
     33130      5396  TIP3      H2              2.6823378543       33.8289191037      -24.7135729876  TIP3      5260            0.0000000000
     33131      5397  TIP3      OH2             4.1612835994       30.4595921559      -24.9025276552  TIP3      5261            0.0000000000
     33132      5397  TIP3      H1              3.4276401496       29.8323047621      -25.0982196040  TIP3      5261            0.0000000000
     33133      5397  TIP3      H2              4.5132025517       30.5884674171      -25.7928819231  TIP3      5261            0.0000000000
     33134      5398  TIP3      OH2             1.3117473505       28.8499854348      -36.4626973565  TIP3      5262            0.0000000000
     33135      5398  TIP3      H1              1.5855879147       27.9029332363      -36.4529667117  TIP3      5262            0.0000000000
     33136      5398  TIP3      H2              1.9461175941       29.1423032773      -37.1466630134  TIP3      5262            0.0000000000
     33137      5399  TIP3      OH2             2.4990218387       29.3806652257      -31.8522124983  TIP3      5263            0.0000000000
     33138      5399  TIP3      H1              3.4368635860       29.4126579227      -31.5698688919  TIP3      5263            0.0000000000
     33139      5399  TIP3      H2              2.0794350186       29.5601837545      -30.9818266914  TIP3      5263            0.0000000000
     33140      5400  TIP3      OH2             1.8351819738       29.8443420183      -29.3656774869  TIP3      5264            0.0000000000
     33141      5400  TIP3      H1              0.9602887213       30.1412464803      -29.0245415362  TIP3      5264            0.0000000000
     33142      5400  TIP3      H2              2.3670222936       30.6596106107      -29.2020377821  TIP3      5264            0.0000000000
     33143      5401  TIP3      OH2           -12.4418192718       28.4786476897      -26.1691162666  TIP3      5265            0.0000000000
     33144      5401  TIP3      H1            -12.0633414090       28.1997034764      -25.3120922679  TIP3      5265            0.0000000000
     33145      5401  TIP3      H2            -13.2347556721       27.8808880120      -26.1863421309  TIP3      5265            0.0000000000
     33146      5402  TIP3      OH2             4.3075270555       24.4361916385      -24.1261971555  TIP3      5266            0.0000000000
     33147      5402  TIP3      H1              4.6992504458       23.6042267940      -24.4726633035  TIP3      5266            0.0000000000
     33148      5402  TIP3      H2              4.6585777777       25.0670290364      -24.7800612756  TIP3      5266            0.0000000000
     33149      5403  TIP3      OH2             2.3044198881       26.4648492455      -37.0929367437  TIP3      5267            0.0000000000
     33150      5403  TIP3      H1              2.5622253985       25.7587793726      -36.4599482138  TIP3      5267            0.0000000000
     33151      5403  TIP3      H2              1.6399838195       26.0055239085      -37.6307152475  TIP3      5267            0.0000000000
     33152      5404  TIP3      OH2           -12.4081775922       26.6666727196      -31.6533403157  TIP3      5268            0.0000000000
     33153      5404  TIP3      H1            -12.0326955480       25.7504596587      -31.6672383291  TIP3      5268            0.0000000000
     33154      5404  TIP3      H2            -11.6062498186       27.2277749714      -31.7110486692  TIP3      5268            0.0000000000
     33155      5405  TIP3      OH2           -13.7133449493       29.7482031199      -31.3688247821  TIP3      5269            0.0000000000
     33156      5405  TIP3      H1            -13.1909868365       29.6546120473      -32.2003817040  TIP3      5269            0.0000000000
     33157      5405  TIP3      H2            -13.1126918412       30.2639818377      -30.8209125412  TIP3      5269            0.0000000000
     33158      5406  TIP3      OH2             3.9125424492       26.8426312023      -25.4922200054  TIP3      5270            0.0000000000
     33159      5406  TIP3      H1              3.5203003848       26.9549175219      -24.6110811040  TIP3      5270            0.0000000000
     33160      5406  TIP3      H2              3.1865823697       26.4499521944      -26.0172345988  TIP3      5270            0.0000000000
     33161      5407  TIP3      OH2             4.3052310505       26.0574256899      -40.8410607920  TIP3      5271            0.0000000000
     33162      5407  TIP3      H1              4.5938166469       26.3490272614      -41.7218524920  TIP3      5271            0.0000000000
     33163      5407  TIP3      H2              4.7697590649       26.7214367998      -40.2900658407  TIP3      5271            0.0000000000
     33164      5408  TIP3      OH2           -13.6136680188       25.9070383309      -37.5236122645  TIP3      5272            0.0000000000
     33165      5408  TIP3      H1            -14.2023594050       25.1416245355      -37.5780955907  TIP3      5272            0.0000000000
     33166      5408  TIP3      H2            -13.7604774975       26.3639183173      -38.3721394523  TIP3      5272            0.0000000000
     33167      5409  TIP3      OH2           -14.0327495318       24.4179004068      -28.9363585972  TIP3      5273            0.0000000000
     33168      5409  TIP3      H1            -14.7262072683       23.9699263356      -28.3983318339  TIP3      5273            0.0000000000
     33169      5409  TIP3      H2            -14.4444805636       25.2673985362      -29.1417569449  TIP3      5273            0.0000000000
     33170      5410  TIP3      OH2             2.9952414362       23.7998602418      -27.2932995401  TIP3      5274            0.0000000000
     33171      5410  TIP3      H1              2.4394058587       24.4936073946      -27.6928973486  TIP3      5274            0.0000000000
     33172      5410  TIP3      H2              2.8730826566       23.0235103842      -27.8731568802  TIP3      5274            0.0000000000
     33173      5411  TIP3      OH2            -4.2892060064       24.6544295509      -33.3789394806  TIP3      5275            0.0000000000
     33174      5411  TIP3      H1             -5.0226269031       24.1465063195      -32.9551611603  TIP3      5275            0.0000000000
     33175      5411  TIP3      H2             -3.5174131799       24.0829064286      -33.2166942702  TIP3      5275            0.0000000000
     33176      5412  TIP3      OH2             1.6121737840       23.6063971195      -33.1275248803  TIP3      5276            0.0000000000
     33177      5412  TIP3      H1              2.2480775512       24.1779976439      -33.6327220136  TIP3      5276            0.0000000000
     33178      5412  TIP3      H2              0.7736743320       23.9952824545      -33.4367012245  TIP3      5276            0.0000000000
     33179      5413  TIP3      OH2             3.1036151892       24.8005363688      -34.9876970571  TIP3      5277            0.0000000000
     33180      5413  TIP3      H1              3.8136864710       24.2405552329      -35.3742777880  TIP3      5277            0.0000000000
     33181      5413  TIP3      H2              3.6874255850       25.5433944192      -34.6825785296  TIP3      5277            0.0000000000
     33182      5414  TIP3      OH2           -11.2197539195       23.8261358089      -34.9570480787  TIP3      5278            0.0000000000
     33183      5414  TIP3      H1            -12.1042561134       23.7310550354      -35.3656434813  TIP3      5278            0.0000000000
     33184      5414  TIP3      H2            -10.8029131313       22.9724865534      -35.2112594502  TIP3      5278            0.0000000000
     33185      5415  TIP3      OH2           -12.8195237960       24.2223384127      -39.5071233547  TIP3      5279            0.0000000000
     33186      5415  TIP3      H1            -12.0119205054       24.4448881344      -40.0277953076  TIP3      5279            0.0000000000
     33187      5415  TIP3      H2            -12.6097482550       24.6417958756      -38.6518481446  TIP3      5279            0.0000000000
     33188      5416  TIP3      OH2            -7.0481951005       23.4211060182      -35.4256345732  TIP3      5280            0.0000000000
     33189      5416  TIP3      H1             -6.1249706818       23.5177335663      -35.7012377411  TIP3      5280            0.0000000000
     33190      5416  TIP3      H2             -7.0396321126       23.8142015344      -34.5422246324  TIP3      5280            0.0000000000
     33191      5417  TIP3      OH2            -1.2019934638       24.2406578551      -34.3514615407  TIP3      5281            0.0000000000
     33192      5417  TIP3      H1             -1.5371318567       24.2720351258      -35.2549453747  TIP3      5281            0.0000000000
     33193      5417  TIP3      H2             -1.5013900702       23.3384739127      -34.0787802442  TIP3      5281            0.0000000000
     33194      5418  TIP3      OH2             0.2303425465       24.4969850320      -38.4296859157  TIP3      5282            0.0000000000
     33195      5418  TIP3      H1             -0.6377141000       24.9395901747      -38.4093858846  TIP3      5282            0.0000000000
     33196      5418  TIP3      H2             -0.0207129717       23.6225016661      -38.0783124828  TIP3      5282            0.0000000000
     33197      5419  TIP3      OH2           -10.7100581288       25.2469815038      -40.8770478089  TIP3      5283            0.0000000000
     33198      5419  TIP3      H1            -10.4623682657       25.4892463427      -41.7823054129  TIP3      5283            0.0000000000
     33199      5419  TIP3      H2            -10.1558380257       25.8719833408      -40.3647890661  TIP3      5283            0.0000000000
     33200      5420  TIP3      OH2            -5.5398734157       26.3116839638      -38.0271459640  TIP3      5284            0.0000000000
     33201      5420  TIP3      H1             -4.9965773764       25.9053195920      -37.3306452025  TIP3      5284            0.0000000000
     33202      5420  TIP3      H2             -5.6559241419       27.2083425724      -37.6524368420  TIP3      5284            0.0000000000
     33203      5421  TIP3      OH2           -11.8140557028       24.5566134816      -26.2301291441  TIP3      5285            0.0000000000
     33204      5421  TIP3      H1            -12.5029056888       23.8937011250      -26.0315571437  TIP3      5285            0.0000000000
     33205      5421  TIP3      H2            -11.0541562711       24.1543969960      -25.7908747630  TIP3      5285            0.0000000000
     33206      5422  TIP3      OH2            -9.2277454092       24.1483089402      -23.5317938955  TIP3      5286            0.0000000000
     33207      5422  TIP3      H1             -8.5180802547       23.9869475776      -24.1792132922  TIP3      5286            0.0000000000
     33208      5422  TIP3      H2             -9.4897655130       23.2204224603      -23.4407396822  TIP3      5286            0.0000000000
     33209      5423  TIP3      OH2            -0.8175926524       23.4688503163      -23.9896178464  TIP3      5287            0.0000000000
     33210      5423  TIP3      H1             -0.6676574411       23.2479949263      -23.0541693480  TIP3      5287            0.0000000000
     33211      5423  TIP3      H2              0.0863493949       23.3889530773      -24.3525799646  TIP3      5287            0.0000000000
     33212      5424  TIP3      OH2            16.1127210698       32.3264735924      -32.9758002854  TIP3      5288            0.0000000000
     33213      5424  TIP3      H1             16.3911837104       32.1400068615      -32.0637341019  TIP3      5288            0.0000000000
     33214      5424  TIP3      H2             15.3572330515       31.7304730413      -33.0729412519  TIP3      5288            0.0000000000
     33215      5425  TIP3      OH2             7.6757995713       32.2699523925      -30.9265759302  TIP3      5289            0.0000000000
     33216      5425  TIP3      H1              7.7873896440       31.3820388141      -30.5554306075  TIP3      5289            0.0000000000
     33217      5425  TIP3      H2              8.1883360995       32.8057089422      -30.2988414292  TIP3      5289            0.0000000000
     33218      5426  TIP3      OH2             5.7160724449       29.9229342939      -36.6963801842  TIP3      5290            0.0000000000
     33219      5426  TIP3      H1              5.6625042790       30.6371634474      -36.0173441668  TIP3      5290            0.0000000000
     33220      5426  TIP3      H2              4.8278106966       29.9930701506      -37.0998124447  TIP3      5290            0.0000000000
     33221      5427  TIP3      OH2             6.2503658510       31.8732236850      -34.8896907392  TIP3      5291            0.0000000000
     33222      5427  TIP3      H1              6.4423753774       31.3547129400      -34.0814824395  TIP3      5291            0.0000000000
     33223      5427  TIP3      H2              6.9697187959       32.5230831386      -34.8809279075  TIP3      5291            0.0000000000
     33224      5428  TIP3      OH2            22.2595889977       26.2923142798      -31.3438425260  TIP3      5292            0.0000000000
     33225      5428  TIP3      H1             22.5121850584       26.9490884948      -30.6644611718  TIP3      5292            0.0000000000
     33226      5428  TIP3      H2             23.1351481062       26.0985473177      -31.7363764727  TIP3      5292            0.0000000000
     33227      5429  TIP3      OH2            17.0195184197       29.1536553919      -31.1110437195  TIP3      5293            0.0000000000
     33228      5429  TIP3      H1             17.2737188069       28.2104080571      -30.9791586568  TIP3      5293            0.0000000000
     33229      5429  TIP3      H2             16.9510245606       29.2023132725      -32.0956217726  TIP3      5293            0.0000000000
     33230      5430  TIP3      OH2            10.1512629150       26.9617215925      -34.1729655442  TIP3      5294            0.0000000000
     33231      5430  TIP3      H1             10.2758015070       27.7703949282      -34.7178197745  TIP3      5294            0.0000000000
     33232      5430  TIP3      H2              9.7274615820       26.3911320441      -34.8366634747  TIP3      5294            0.0000000000
     33233      5431  TIP3      OH2            17.7814127542       27.5094806601      -35.1453927384  TIP3      5295            0.0000000000
     33234      5431  TIP3      H1             18.3898773053       26.9525589678      -34.6107995967  TIP3      5295            0.0000000000
     33235      5431  TIP3      H2             18.4326765010       28.1313296374      -35.5166823347  TIP3      5295            0.0000000000
     33236      5432  TIP3      OH2             6.8717302078       29.7640419842      -33.2759521829  TIP3      5296            0.0000000000
     33237      5432  TIP3      H1              7.4160782433       29.1802283361      -32.7189707102  TIP3      5296            0.0000000000
     33238      5432  TIP3      H2              7.1350390647       29.4038247374      -34.1546560352  TIP3      5296            0.0000000000
     33239      5433  TIP3      OH2            11.8577247485       31.1673239856      -33.9681840296  TIP3      5297            0.0000000000
     33240      5433  TIP3      H1             12.6300186163       30.5686620090      -33.8436321546  TIP3      5297            0.0000000000
     33241      5433  TIP3      H2             11.3563353542       30.6641561155      -34.6311177395  TIP3      5297            0.0000000000
     33242      5434  TIP3      OH2            22.3847833609       27.8209211606      -28.8189614080  TIP3      5298            0.0000000000
     33243      5434  TIP3      H1             21.8743800121       28.6304649242      -29.0581908487  TIP3      5298            0.0000000000
     33244      5434  TIP3      H2             23.1938457657       28.2132672274      -28.4567685190  TIP3      5298            0.0000000000
     33245      5435  TIP3      OH2             9.3778483887       26.3996086452      -30.0362860602  TIP3      5299            0.0000000000
     33246      5435  TIP3      H1              8.7878912148       26.8550819985      -30.6740617356  TIP3      5299            0.0000000000
     33247      5435  TIP3      H2              8.8097369591       26.3996273688      -29.2381066804  TIP3      5299            0.0000000000
     33248      5436  TIP3      OH2            20.1823444428       26.9898342700      -33.6557070041  TIP3      5300            0.0000000000
     33249      5436  TIP3      H1             20.1954950653       26.3016272923      -32.9757509173  TIP3      5300            0.0000000000
     33250      5436  TIP3      H2             20.5547915055       27.7416301226      -33.1557806854  TIP3      5300            0.0000000000
     33251      5437  TIP3      OH2             8.7254766632       28.1340929165      -32.0814747469  TIP3      5301            0.0000000000
     33252      5437  TIP3      H1              9.3744145517       28.6669261449      -31.5716929900  TIP3      5301            0.0000000000
     33253      5437  TIP3      H2              9.2922991622       27.7846897907      -32.8169458513  TIP3      5301            0.0000000000
     33254      5438  TIP3      OH2            20.6195095088       25.0449196292      -29.4973964440  TIP3      5302            0.0000000000
     33255      5438  TIP3      H1             19.8782588629       25.6659751416      -29.5607304152  TIP3      5302            0.0000000000
     33256      5438  TIP3      H2             21.1536596094       25.3313291238      -30.2772307455  TIP3      5302            0.0000000000
     33257      5439  TIP3      OH2            12.5862294605       23.6037968884      -32.6301830038  TIP3      5303            0.0000000000
     33258      5439  TIP3      H1             12.3891694139       22.6717615023      -32.8111245368  TIP3      5303            0.0000000000
     33259      5439  TIP3      H2             11.6892106336       23.9393956573      -32.3549359338  TIP3      5303            0.0000000000
     33260      5440  TIP3      OH2            15.2143414061       32.1912233735      -38.2450338903  TIP3      5304            0.0000000000
     33261      5440  TIP3      H1             15.0315949301       32.9860117551      -37.7138591334  TIP3      5304            0.0000000000
     33262      5440  TIP3      H2             16.1080956332       32.3707870498      -38.6134045328  TIP3      5304            0.0000000000
     33263      5441  TIP3      OH2            15.8174429200       31.0430610038      -41.1900952464  TIP3      5305            0.0000000000
     33264      5441  TIP3      H1             16.4248863001       31.6588408178      -40.7410461290  TIP3      5305            0.0000000000
     33265      5441  TIP3      H2             15.8965266350       30.2464777637      -40.6460731630  TIP3      5305            0.0000000000
     33266      5442  TIP3      OH2            22.5933181574       31.8490583403      -29.6425968908  TIP3      5306            0.0000000000
     33267      5442  TIP3      H1             23.0361542784       32.7248390138      -29.7613390237  TIP3      5306            0.0000000000
     33268      5442  TIP3      H2             23.0618779123       31.3327308120      -30.3381584071  TIP3      5306            0.0000000000
     33269      5443  TIP3      OH2            18.9788484402       32.0467421775      -36.6448957493  TIP3      5307            0.0000000000
     33270      5443  TIP3      H1             18.6861387102       32.5696686256      -35.8605656713  TIP3      5307            0.0000000000
     33271      5443  TIP3      H2             19.8365447745       31.6781042887      -36.3497328908  TIP3      5307            0.0000000000
     33272      5444  TIP3      OH2            18.3531379271       30.6331258231      -27.8572778770  TIP3      5308            0.0000000000
     33273      5444  TIP3      H1             18.4208765291       31.2245646417      -27.0747726574  TIP3      5308            0.0000000000
     33274      5444  TIP3      H2             17.7870756331       31.1263480524      -28.4816426463  TIP3      5308            0.0000000000
     33275      5445  TIP3      OH2            10.7942108247       31.7365421891      -31.4521791937  TIP3      5309            0.0000000000
     33276      5445  TIP3      H1             11.0318452231       31.5152371801      -32.3770609341  TIP3      5309            0.0000000000
     33277      5445  TIP3      H2             10.8005363237       32.7183801493      -31.5243538401  TIP3      5309            0.0000000000
     33278      5446  TIP3      OH2            17.7557966593       32.0964584661      -39.0112889267  TIP3      5310            0.0000000000
     33279      5446  TIP3      H1             18.2930315036       32.2078318499      -38.1893649008  TIP3      5310            0.0000000000
     33280      5446  TIP3      H2             18.3770209846       32.4357077835      -39.6984069665  TIP3      5310            0.0000000000
     33281      5447  TIP3      OH2             9.4661616762       32.5169722219      -27.9265371403  TIP3      5311            0.0000000000
     33282      5447  TIP3      H1              9.7941650576       33.2873044234      -27.4417326311  TIP3      5311            0.0000000000
     33283      5447  TIP3      H2              8.6145713155       32.3941049116      -27.4777864191  TIP3      5311            0.0000000000
     33284      5448  TIP3      OH2            21.9574898066       23.9254384923      -39.0137312010  TIP3      5312            0.0000000000
     33285      5448  TIP3      H1             20.9872895027       23.7713924080      -38.9616714127  TIP3      5312            0.0000000000
     33286      5448  TIP3      H2             21.9971983425       24.5691152306      -39.7454061303  TIP3      5312            0.0000000000
     33287      5449  TIP3      OH2             8.9796331035       32.3486524629      -37.1439099898  TIP3      5313            0.0000000000
     33288      5449  TIP3      H1              9.4187786109       32.8545027806      -37.8452215863  TIP3      5313            0.0000000000
     33289      5449  TIP3      H2              8.6181138482       31.5897029865      -37.6159528674  TIP3      5313            0.0000000000
     33290      5450  TIP3      OH2            20.7313830981       29.3283105561      -26.4008262851  TIP3      5314            0.0000000000
     33291      5450  TIP3      H1             19.7927649554       29.5650390415      -26.4921121595  TIP3      5314            0.0000000000
     33292      5450  TIP3      H2             20.6952133989       28.3557953370      -26.4633763128  TIP3      5314            0.0000000000
     33293      5451  TIP3      OH2            10.2476672698       24.6375930523      -31.8397052609  TIP3      5315            0.0000000000
     33294      5451  TIP3      H1              9.3650088178       24.8133841620      -32.2185144233  TIP3      5315            0.0000000000
     33295      5451  TIP3      H2             10.1894054813       25.1902033711      -31.0306536509  TIP3      5315            0.0000000000
     33296      5452  TIP3      OH2            15.1734740459       23.9469015157      -28.4955263110  TIP3      5316            0.0000000000
     33297      5452  TIP3      H1             15.3812497487       23.4828583246      -27.6623234077  TIP3      5316            0.0000000000
     33298      5452  TIP3      H2             14.2023018650       24.0702332892      -28.4432471871  TIP3      5316            0.0000000000
     33299      5453  TIP3      OH2            17.7340385752       28.0645670172      -27.1641435640  TIP3      5317            0.0000000000
     33300      5453  TIP3      H1             16.9507396304       27.7642939483      -26.6542939506  TIP3      5317            0.0000000000
     33301      5453  TIP3      H2             17.5997111919       29.0261409461      -27.2950067921  TIP3      5317            0.0000000000
     33302      5454  TIP3      OH2            19.0996949328       32.6660031349      -41.1909364254  TIP3      5318            0.0000000000
     33303      5454  TIP3      H1             19.4348760273       31.9889080594      -41.7863550664  TIP3      5318            0.0000000000
     33304      5454  TIP3      H2             19.9530405899       32.9821532692      -40.8028548357  TIP3      5318            0.0000000000
     33305      5455  TIP3      OH2            14.9273526372       26.9347030540      -40.8313306118  TIP3      5319            0.0000000000
     33306      5455  TIP3      H1             14.3111667164       26.8660150222      -40.0759339561  TIP3      5319            0.0000000000
     33307      5455  TIP3      H2             14.7802064885       26.0827616484      -41.2433098940  TIP3      5319            0.0000000000
     33308      5456  TIP3      OH2            10.5020111841       29.2589227129      -30.3313731114  TIP3      5320            0.0000000000
     33309      5456  TIP3      H1              9.7368119024       29.4403702504      -29.7399232854  TIP3      5320            0.0000000000
     33310      5456  TIP3      H2             10.6124654506       30.1443992727      -30.7492216450  TIP3      5320            0.0000000000
     33311      5457  TIP3      OH2            10.2884773424       29.1318609812      -35.8204113912  TIP3      5321            0.0000000000
     33312      5457  TIP3      H1              9.3077059348       29.1292022443      -35.8415657571  TIP3      5321            0.0000000000
     33313      5457  TIP3      H2             10.5094864465       29.1094860457      -36.7737818212  TIP3      5321            0.0000000000
     33314      5458  TIP3      OH2            16.1209558636       30.3555208740      -36.5155649771  TIP3      5322            0.0000000000
     33315      5458  TIP3      H1             15.7130819298       31.0329982890      -37.1070078234  TIP3      5322            0.0000000000
     33316      5458  TIP3      H2             16.5764848497       29.7894908349      -37.1585289051  TIP3      5322            0.0000000000
     33317      5459  TIP3      OH2            15.6797883758       29.9750791615      -25.3193449963  TIP3      5323            0.0000000000
     33318      5459  TIP3      H1             14.9696096616       29.3535003089      -25.0372943479  TIP3      5323            0.0000000000
     33319      5459  TIP3      H2             16.4676254335       29.4901134152      -24.9980597622  TIP3      5323            0.0000000000
     33320      5460  TIP3      OH2            16.6404379873       29.5210651341      -33.7695826024  TIP3      5324            0.0000000000
     33321      5460  TIP3      H1             16.5764332617       30.2205055854      -34.4472823878  TIP3      5324            0.0000000000
     33322      5460  TIP3      H2             16.9056475642       28.7532128658      -34.3264479011  TIP3      5324            0.0000000000
     33323      5461  TIP3      OH2             8.1130416569       29.5721896659      -29.1732565115  TIP3      5325            0.0000000000
     33324      5461  TIP3      H1              8.2506031542       29.9428182628      -28.2871704565  TIP3      5325            0.0000000000
     33325      5461  TIP3      H2              7.9537854867       28.6282541000      -28.9546643220  TIP3      5325            0.0000000000
     33326      5462  TIP3      OH2            11.1858619591       27.4322913986      -41.6449380916  TIP3      5326            0.0000000000
     33327      5462  TIP3      H1             10.7037642132       27.0251403433      -40.9068292350  TIP3      5326            0.0000000000
     33328      5462  TIP3      H2             10.9096646835       28.3667000330      -41.5380010055  TIP3      5326            0.0000000000
     33329      5463  TIP3      OH2             4.9232554240       26.6575256355      -34.7096926596  TIP3      5327            0.0000000000
     33330      5463  TIP3      H1              5.5313947047       27.1152481738      -34.1200303678  TIP3      5327            0.0000000000
     33331      5463  TIP3      H2              5.3267904974       26.7906396412      -35.5848029413  TIP3      5327            0.0000000000
     33332      5464  TIP3      OH2             5.6526492162       27.8851219019      -39.3672386404  TIP3      5328            0.0000000000
     33333      5464  TIP3      H1              6.3877068797       28.1325397247      -39.9708454476  TIP3      5328            0.0000000000
     33334      5464  TIP3      H2              5.7386551401       28.5378642497      -38.6469828174  TIP3      5328            0.0000000000
     33335      5465  TIP3      OH2            15.9824104960       31.0760359771      -29.6123768803  TIP3      5329            0.0000000000
     33336      5465  TIP3      H1             16.2942669106       30.4349360439      -30.2981339525  TIP3      5329            0.0000000000
     33337      5465  TIP3      H2             15.6858482517       30.4368917294      -28.9154935838  TIP3      5329            0.0000000000
     33338      5466  TIP3      OH2            13.2925666087       26.7384599989      -34.7239068640  TIP3      5330            0.0000000000
     33339      5466  TIP3      H1             12.3928950135       26.9993952807      -34.4549156347  TIP3      5330            0.0000000000
     33340      5466  TIP3      H2             13.6731160332       26.4218235216      -33.8701065811  TIP3      5330            0.0000000000
     33341      5467  TIP3      OH2             7.6605291517       28.5568458849      -35.5738031040  TIP3      5331            0.0000000000
     33342      5467  TIP3      H1              7.0013537903       28.9972067400      -36.1693717042  TIP3      5331            0.0000000000
     33343      5467  TIP3      H2              7.8346649548       27.6989964680      -36.0267002241  TIP3      5331            0.0000000000
     33344      5468  TIP3      OH2            11.1049369292       28.5997802703      -38.3935966807  TIP3      5332            0.0000000000
     33345      5468  TIP3      H1             11.9800651629       28.8975707988      -38.0973467329  TIP3      5332            0.0000000000
     33346      5468  TIP3      H2             10.9314084860       29.1592897991      -39.1818464555  TIP3      5332            0.0000000000
     33347      5469  TIP3      OH2            17.6973505085       26.5707697657      -31.5988122686  TIP3      5333            0.0000000000
     33348      5469  TIP3      H1             17.1336683097       26.3135090043      -30.8388768315  TIP3      5333            0.0000000000
     33349      5469  TIP3      H2             17.3710745854       26.0139132085      -32.3198563427  TIP3      5333            0.0000000000
     33350      5470  TIP3      OH2            10.3065192377       29.8822976629      -40.7936286815  TIP3      5334            0.0000000000
     33351      5470  TIP3      H1              9.5772217219       29.8848502334      -41.4482752103  TIP3      5334            0.0000000000
     33352      5470  TIP3      H2             11.0275844256       30.3862154647      -41.2249643085  TIP3      5334            0.0000000000
     33353      5471  TIP3      OH2            13.8558865642       29.5369402102      -33.1440642387  TIP3      5335            0.0000000000
     33354      5471  TIP3      H1             14.7513623786       29.1631113265      -33.2501971603  TIP3      5335            0.0000000000
     33355      5471  TIP3      H2             13.5762820587       29.0824235661      -32.3165315770  TIP3      5335            0.0000000000
     33356      5472  TIP3      OH2             8.6305190027       26.1138889488      -36.3784296404  TIP3      5336            0.0000000000
     33357      5472  TIP3      H1              8.1622061346       25.3550742350      -35.9634957100  TIP3      5336            0.0000000000
     33358      5472  TIP3      H2              9.0700338036       25.7221177728      -37.1505003832  TIP3      5336            0.0000000000
     33359      5473  TIP3      OH2            13.1539652047       28.6020392102      -30.5857937362  TIP3      5337            0.0000000000
     33360      5473  TIP3      H1             12.2626820014       29.0144403955      -30.5975352021  TIP3      5337            0.0000000000
     33361      5473  TIP3      H2             13.5784813063       29.0827019347      -29.8614959918  TIP3      5337            0.0000000000
     33362      5474  TIP3      OH2            17.3844845293       27.2591118273      -39.8918351561  TIP3      5338            0.0000000000
     33363      5474  TIP3      H1             16.4928374854       27.2705970606      -40.2972364570  TIP3      5338            0.0000000000
     33364      5474  TIP3      H2             17.5730655289       28.2040026792      -39.7270450401  TIP3      5338            0.0000000000
     33365      5475  TIP3      OH2            18.0714581127       29.4672009271      -38.5905924740  TIP3      5339            0.0000000000
     33366      5475  TIP3      H1             18.7829262355       29.3097136098      -37.9423068247  TIP3      5339            0.0000000000
     33367      5475  TIP3      H2             18.0847146495       30.4422493979      -38.6430793279  TIP3      5339            0.0000000000
     33368      5476  TIP3      OH2             5.6338247344       32.3264554225      -27.4349584760  TIP3      5340            0.0000000000
     33369      5476  TIP3      H1              6.0751921531       31.5411789532      -27.0689127432  TIP3      5340            0.0000000000
     33370      5476  TIP3      H2              4.8390209728       31.9690131167      -27.8744521992  TIP3      5340            0.0000000000
     33371      5477  TIP3      OH2            13.0347187528       31.3998364496      -25.4897135102  TIP3      5341            0.0000000000
     33372      5477  TIP3      H1             12.2935944175       31.0730976532      -26.0538920218  TIP3      5341            0.0000000000
     33373      5477  TIP3      H2             13.7963532801       30.9042911899      -25.8242262727  TIP3      5341            0.0000000000
     33374      5478  TIP3      OH2            22.6030436967       29.8639124846      -38.4833392388  TIP3      5342            0.0000000000
     33375      5478  TIP3      H1             22.1788314192       29.5345209559      -39.2915575440  TIP3      5342            0.0000000000
     33376      5478  TIP3      H2             22.9780697670       30.6880208224      -38.8543216169  TIP3      5342            0.0000000000
     33377      5479  TIP3      OH2             6.8176218676       31.4655649887      -41.5505484850  TIP3      5343            0.0000000000
     33378      5479  TIP3      H1              7.0116329820       32.3059912437      -41.1131206295  TIP3      5343            0.0000000000
     33379      5479  TIP3      H2              5.8444452101       31.4670929955      -41.3732233910  TIP3      5343            0.0000000000
     33380      5480  TIP3      OH2             7.9065433245       27.1584734732      -27.7936447822  TIP3      5344            0.0000000000
     33381      5480  TIP3      H1              7.1316053229       27.5689966761      -27.3540372922  TIP3      5344            0.0000000000
     33382      5480  TIP3      H2              8.1066587603       26.4652431520      -27.1289813302  TIP3      5344            0.0000000000
     33383      5481  TIP3      OH2            16.6360942957       26.1428491349      -29.0500928629  TIP3      5345            0.0000000000
     33384      5481  TIP3      H1             16.9893694554       26.4496872470      -28.1953533164  TIP3      5345            0.0000000000
     33385      5481  TIP3      H2             16.0141715734       25.4367680406      -28.7583695100  TIP3      5345            0.0000000000
     33386      5482  TIP3      OH2            16.6126988226       26.4091966261      -37.4597559724  TIP3      5346            0.0000000000
     33387      5482  TIP3      H1             16.9501372320       26.7542603895      -38.3164785819  TIP3      5346            0.0000000000
     33388      5482  TIP3      H2             17.1896856570       26.8588425677      -36.8138268878  TIP3      5346            0.0000000000
     33389      5483  TIP3      OH2            13.9838151721       28.2666514747      -36.8454647607  TIP3      5347            0.0000000000
     33390      5483  TIP3      H1             14.4335730704       29.1132815179      -36.6964811099  TIP3      5347            0.0000000000
     33391      5483  TIP3      H2             13.9630432856       27.8496155658      -35.9507641870  TIP3      5347            0.0000000000
     33392      5484  TIP3      OH2            14.9725767234       29.1409447329      -28.0225505082  TIP3      5348            0.0000000000
     33393      5484  TIP3      H1             15.0103661714       29.1823843500      -27.0504683555  TIP3      5348            0.0000000000
     33394      5484  TIP3      H2             15.4320030711       28.3126561768      -28.2411788249  TIP3      5348            0.0000000000
     33395      5485  TIP3      OH2            14.5529645524       24.8410795569      -36.4089635737  TIP3      5349            0.0000000000
     33396      5485  TIP3      H1             14.0203566838       25.4218582017      -35.8224139470  TIP3      5349            0.0000000000
     33397      5485  TIP3      H2             15.2789780044       25.4705566543      -36.6689419540  TIP3      5349            0.0000000000
     33398      5486  TIP3      OH2            10.1660876534       26.1874403906      -39.2611303683  TIP3      5350            0.0000000000
     33399      5486  TIP3      H1             10.3227420062       27.0414611175      -38.8018686689  TIP3      5350            0.0000000000
     33400      5486  TIP3      H2             11.0183840926       25.7474718054      -39.0653402580  TIP3      5350            0.0000000000
     33401      5487  TIP3      OH2            20.4013817250       26.7567812223      -27.1026798138  TIP3      5351            0.0000000000
     33402      5487  TIP3      H1             19.4539543152       26.9979749897      -27.1920092471  TIP3      5351            0.0000000000
     33403      5487  TIP3      H2             20.7912758718       27.1638379162      -27.9056084472  TIP3      5351            0.0000000000
     33404      5488  TIP3      OH2            19.6356636308       31.0161484054      -33.3974466293  TIP3      5352            0.0000000000
     33405      5488  TIP3      H1             18.8141034307       30.6898727189      -33.0137218541  TIP3      5352            0.0000000000
     33406      5488  TIP3      H2             20.2985520336       30.5794946412      -32.8114236189  TIP3      5352            0.0000000000
     33407      5489  TIP3      OH2             7.8538247245       28.8777561840      -41.5636637273  TIP3      5353            0.0000000000
     33408      5489  TIP3      H1              7.6243962699       29.8315916731      -41.6310116027  TIP3      5353            0.0000000000
     33409      5489  TIP3      H2              7.1660240094       28.4460379042      -42.0880851774  TIP3      5353            0.0000000000
     33410      5490  TIP3      OH2             7.5005177278       24.2878874003      -32.1935360858  TIP3      5354            0.0000000000
     33411      5490  TIP3      H1              7.4177234775       24.1074737871      -33.1572513037  TIP3      5354            0.0000000000
     33412      5490  TIP3      H2              7.1989726573       23.4265952705      -31.8387132229  TIP3      5354            0.0000000000
     33413      5491  TIP3      OH2             7.4194504774       31.0787161647      -25.0520164753  TIP3      5355            0.0000000000
     33414      5491  TIP3      H1              7.9100213004       30.6477760915      -24.3019274050  TIP3      5355            0.0000000000
     33415      5491  TIP3      H2              6.5826170767       31.2577336958      -24.6060908538  TIP3      5355            0.0000000000
     33416      5492  TIP3      OH2            11.8447237157       33.0768877735      -39.7231165364  TIP3      5356            0.0000000000
     33417      5492  TIP3      H1             11.2459157646       32.3432486137      -39.5666352059  TIP3      5356            0.0000000000
     33418      5492  TIP3      H2             12.5789446212       32.6401487239      -40.1860876841  TIP3      5356            0.0000000000
     33419      5493  TIP3      OH2            11.3924324466       30.6496428066      -27.5124653697  TIP3      5357            0.0000000000
     33420      5493  TIP3      H1             10.6500512479       31.2892177544      -27.5716999569  TIP3      5357            0.0000000000
     33421      5493  TIP3      H2             11.9182995560       30.9318334353      -28.2929711449  TIP3      5357            0.0000000000
     33422      5494  TIP3      OH2            12.6850853581       31.0590790527      -41.6950715942  TIP3      5358            0.0000000000
     33423      5494  TIP3      H1             12.6260725175       30.8651126656      -42.6591846995  TIP3      5358            0.0000000000
     33424      5494  TIP3      H2             13.6442485760       30.9187440044      -41.5310093642  TIP3      5358            0.0000000000
     33425      5495  TIP3      OH2            11.8310912898       28.1419338277      -26.6955359524  TIP3      5359            0.0000000000
     33426      5495  TIP3      H1             11.9079944631       27.6082000188      -27.5157305965  TIP3      5359            0.0000000000
     33427      5495  TIP3      H2             11.5168059277       29.0129422009      -27.0305965413  TIP3      5359            0.0000000000
     33428      5496  TIP3      OH2            12.1687041351       26.5069766212      -28.8517310389  TIP3      5360            0.0000000000
     33429      5496  TIP3      H1             12.7522003374       27.0673205111      -29.4022053266  TIP3      5360            0.0000000000
     33430      5496  TIP3      H2             11.3111243931       26.6708042773      -29.2897135158  TIP3      5360            0.0000000000
     33431      5497  TIP3      OH2            13.2850763608       31.5280781756      -29.2187098199  TIP3      5361            0.0000000000
     33432      5497  TIP3      H1             14.2258843446       31.4968995272      -29.4610587526  TIP3      5361            0.0000000000
     33433      5497  TIP3      H2             13.1004464938       32.4919841831      -29.2323871519  TIP3      5361            0.0000000000
     33434      5498  TIP3      OH2            17.7976873693       28.8907158760      -23.8109137540  TIP3      5362            0.0000000000
     33435      5498  TIP3      H1             17.0163806256       28.5274888565      -23.3722989968  TIP3      5362            0.0000000000
     33436      5498  TIP3      H2             18.0950911467       29.5959860200      -23.1966927076  TIP3      5362            0.0000000000
     33437      5499  TIP3      OH2            18.9400887061       32.4656025051      -25.9805124447  TIP3      5363            0.0000000000
     33438      5499  TIP3      H1             18.9675077014       33.1393170751      -26.6809600400  TIP3      5363            0.0000000000
     33439      5499  TIP3      H2             19.7653109816       32.6993829869      -25.5121102030  TIP3      5363            0.0000000000
     33440      5500  TIP3      OH2            10.0283803572       29.1981502941      -24.7695509262  TIP3      5364            0.0000000000
     33441      5500  TIP3      H1              9.2140608609       28.7015494772      -24.9652281589  TIP3      5364            0.0000000000
     33442      5500  TIP3      H2             10.6983760746       28.7447052082      -25.3162552042  TIP3      5364            0.0000000000
     33443      5501  TIP3      OH2            12.4604809052       23.7833875615      -28.8543436445  TIP3      5365            0.0000000000
     33444      5501  TIP3      H1             12.2360662455       24.7389423133      -28.8165002352  TIP3      5365            0.0000000000
     33445      5501  TIP3      H2             11.6107631613       23.4100111066      -29.1282388591  TIP3      5365            0.0000000000
     33446      5502  TIP3      OH2            13.7803854228       28.0641411315      -24.7365560533  TIP3      5366            0.0000000000
     33447      5502  TIP3      H1             13.2128974748       27.8588785324      -23.9582716064  TIP3      5366            0.0000000000
     33448      5502  TIP3      H2             13.1116288976       27.8760181634      -25.4334047891  TIP3      5366            0.0000000000
     33449      5503  TIP3      OH2            15.7204989462       26.5676662740      -25.9336723966  TIP3      5367            0.0000000000
     33450      5503  TIP3      H1             14.8954832208       26.8968883893      -25.5263109036  TIP3      5367            0.0000000000
     33451      5503  TIP3      H2             16.0687054423       25.9809717733      -25.2267609348  TIP3      5367            0.0000000000
     33452      5504  TIP3      OH2            17.6461643788       25.5778557445      -24.0898493602  TIP3      5368            0.0000000000
     33453      5504  TIP3      H1             17.6875247674       24.6356073239      -23.8257986399  TIP3      5368            0.0000000000
     33454      5504  TIP3      H2             18.5156535033       25.9366379043      -23.8355872600  TIP3      5368            0.0000000000
     33455      5505  TIP3      OH2             7.9216969669       27.4829993253      -24.7273838749  TIP3      5369            0.0000000000
     33456      5505  TIP3      H1              8.3303482432       26.6056568169      -24.7066260860  TIP3      5369            0.0000000000
     33457      5505  TIP3      H2              8.1071182218       27.7264836265      -23.7804491703  TIP3      5369            0.0000000000
     33458      5506  TIP3      OH2            12.0294026786       23.2075037457      -26.1811592690  TIP3      5370            0.0000000000
     33459      5506  TIP3      H1             12.7017448228       22.5165130236      -26.1009328182  TIP3      5370            0.0000000000
     33460      5506  TIP3      H2             12.1832090443       23.4775044317      -27.1044953764  TIP3      5370            0.0000000000
     33461      5507  TIP3      OH2            13.2423630574       24.8351715882      -24.2802373213  TIP3      5371            0.0000000000
     33462      5507  TIP3      H1             12.6585038555       24.0929079628      -24.4655377886  TIP3      5371            0.0000000000
     33463      5507  TIP3      H2             12.7834127516       25.2365050292      -23.5323129654  TIP3      5371            0.0000000000
     33464      5508  TIP3      OH2            22.6317944116       32.6960023022      -36.4028351105  TIP3      5372            0.0000000000
     33465      5508  TIP3      H1             22.0901902423       31.8854566340      -36.2919565936  TIP3      5372            0.0000000000
     33466      5508  TIP3      H2             23.2953764160       32.5390619446      -35.7060653886  TIP3      5372            0.0000000000
     33467      5509  TIP3      OH2            23.4468505853       32.0096474504      -40.0646928145  TIP3      5373            0.0000000000
     33468      5509  TIP3      H1             22.5884426466       32.3918393200      -39.7872444787  TIP3      5373            0.0000000000
     33469      5509  TIP3      H2             24.0713922308       32.6153544915      -39.6003676324  TIP3      5373            0.0000000000
     33470      5510  TIP3      OH2            21.6275755029       29.5640332463      -41.4209014350  TIP3      5374            0.0000000000
     33471      5510  TIP3      H1             21.6066488982       29.6141105573      -42.3831560840  TIP3      5374            0.0000000000
     33472      5510  TIP3      H2             21.6223079808       28.6088980298      -41.2953672388  TIP3      5374            0.0000000000
     33473      5511  TIP3      OH2            21.1590071325       30.6200167488      -35.5331563371  TIP3      5375            0.0000000000
     33474      5511  TIP3      H1             20.8890393853       29.7481687173      -35.8765926909  TIP3      5375            0.0000000000
     33475      5511  TIP3      H2             20.6238674979       30.6685704489      -34.7041745815  TIP3      5375            0.0000000000
     33476      5512  TIP3      OH2            21.5038750128       33.4364725115      -25.0758810598  TIP3      5376            0.0000000000
     33477      5512  TIP3      H1             21.9026957570       32.5632058096      -24.8904409343  TIP3      5376            0.0000000000
     33478      5512  TIP3      H2             21.5537140406       33.4935415699      -26.0587694244  TIP3      5376            0.0000000000
     33479      5513  TIP3      OH2            22.8506503264       30.7020614160      -25.4678306710  TIP3      5377            0.0000000000
     33480      5513  TIP3      H1             22.0753748553       30.1757141792      -25.7632095256  TIP3      5377            0.0000000000
     33481      5513  TIP3      H2             23.5140268054       29.9866326322      -25.3910045784  TIP3      5377            0.0000000000
     33482      5514  TIP3      OH2            19.9766989956       28.5475059224      -36.7573776401  TIP3      5378            0.0000000000
     33483      5514  TIP3      H1             20.0689603744       27.5709032236      -36.6790251020  TIP3      5378            0.0000000000
     33484      5514  TIP3      H2             20.6959986009       28.7144859089      -37.3881347450  TIP3      5378            0.0000000000
     33485      5515  TIP3      OH2            21.2522378649       29.4068025581      -31.9459829619  TIP3      5379            0.0000000000
     33486      5515  TIP3      H1             22.1958587438       29.5123434183      -31.7249670564  TIP3      5379            0.0000000000
     33487      5515  TIP3      H2             20.8539406806       29.4850932617      -31.0500806938  TIP3      5379            0.0000000000
     33488      5516  TIP3      OH2            20.7117913117       29.9898887696      -29.3874686939  TIP3      5380            0.0000000000
     33489      5516  TIP3      H1             19.9217187672       30.1907725688      -28.8488699540  TIP3      5380            0.0000000000
     33490      5516  TIP3      H2             21.2298561735       30.8244777048      -29.2970205138  TIP3      5380            0.0000000000
     33491      5517  TIP3      OH2             5.8366221785       28.7020051766      -26.4941199757  TIP3      5381            0.0000000000
     33492      5517  TIP3      H1              6.4378714414       28.9158168993      -25.7538851593  TIP3      5381            0.0000000000
     33493      5517  TIP3      H2              5.3824103469       27.9122570175      -26.1279234981  TIP3      5381            0.0000000000
     33494      5518  TIP3      OH2            22.9575779809       23.6835074764      -24.1417518088  TIP3      5382            0.0000000000
     33495      5518  TIP3      H1             23.3940561603       23.0042766332      -24.6970430430  TIP3      5382            0.0000000000
     33496      5518  TIP3      H2             23.0806420312       24.4681517709      -24.7196546324  TIP3      5382            0.0000000000
     33497      5519  TIP3      OH2            20.2740351844       25.7911958504      -36.9558957447  TIP3      5383            0.0000000000
     33498      5519  TIP3      H1             20.9201492920       25.6132173483      -36.2390434229  TIP3      5383            0.0000000000
     33499      5519  TIP3      H2             20.3286812717       24.9783881366      -37.4799909266  TIP3      5383            0.0000000000
     33500      5520  TIP3      OH2             6.4508736053       26.7419702981      -31.6624566002  TIP3      5384            0.0000000000
     33501      5520  TIP3      H1              6.6758670201       25.8054025540      -31.8841645226  TIP3      5384            0.0000000000
     33502      5520  TIP3      H2              7.2826349998       27.2163205796      -31.8642448459  TIP3      5384            0.0000000000
     33503      5521  TIP3      OH2             5.0197793980       30.1313695204      -31.1729852831  TIP3      5385            0.0000000000
     33504      5521  TIP3      H1              5.6598600656       29.4598237224      -31.4625549695  TIP3      5385            0.0000000000
     33505      5521  TIP3      H2              5.5013609390       30.9327710842      -31.4233556548  TIP3      5385            0.0000000000
     33506      5522  TIP3      OH2            22.7657469978       26.0018081530      -25.4046217889  TIP3      5386            0.0000000000
     33507      5522  TIP3      H1             22.0704528207       26.1740563771      -24.7323639220  TIP3      5386            0.0000000000
     33508      5522  TIP3      H2             22.1950707706       25.9850984348      -26.2023526890  TIP3      5386            0.0000000000
     33509      5523  TIP3      OH2            23.2095319301       26.0451016409      -40.6661996128  TIP3      5387            0.0000000000
     33510      5523  TIP3      H1             23.6856551126       25.2208398629      -40.8500466194  TIP3      5387            0.0000000000
     33511      5523  TIP3      H2             23.8425030794       26.5356519554      -40.1036995693  TIP3      5387            0.0000000000
     33512      5524  TIP3      OH2             4.9983800044       25.9716047549      -37.4320867425  TIP3      5388            0.0000000000
     33513      5524  TIP3      H1              4.0411126600       26.1681465654      -37.4249681401  TIP3      5388            0.0000000000
     33514      5524  TIP3      H2              5.2254580465       26.2150241235      -38.3408195096  TIP3      5388            0.0000000000
     33515      5525  TIP3      OH2             4.8365264847       24.5492761193      -29.2492706945  TIP3      5389            0.0000000000
     33516      5525  TIP3      H1              4.3669085302       24.1332966260      -28.4991839624  TIP3      5389            0.0000000000
     33517      5525  TIP3      H2              4.4735142074       25.4450293115      -29.2741564448  TIP3      5389            0.0000000000
     33518      5526  TIP3      OH2            21.6671854669       23.4929098619      -27.4434401472  TIP3      5390            0.0000000000
     33519      5526  TIP3      H1             21.2581994038       24.0491292536      -28.1400270521  TIP3      5390            0.0000000000
     33520      5526  TIP3      H2             21.8022108160       22.6265501570      -27.8982288472  TIP3      5390            0.0000000000
     33521      5527  TIP3      OH2            14.5043214965       25.4367774835      -32.7193679614  TIP3      5391            0.0000000000
     33522      5527  TIP3      H1             13.7906550948       24.7912578056      -32.5284724134  TIP3      5391            0.0000000000
     33523      5527  TIP3      H2             15.1550461644       24.8938292427      -33.1796316542  TIP3      5391            0.0000000000
     33524      5528  TIP3      OH2            20.2659502129       23.6433978672      -33.2755596618  TIP3      5392            0.0000000000
     33525      5528  TIP3      H1             20.9448959801       24.1458794274      -33.7856684353  TIP3      5392            0.0000000000
     33526      5528  TIP3      H2             19.4250450917       23.8688222387      -33.7456548002  TIP3      5392            0.0000000000
     33527      5529  TIP3      OH2            22.1426710168       24.7011423467      -35.1751393359  TIP3      5393            0.0000000000
     33528      5529  TIP3      H1             22.8650034513       24.0969278204      -35.4820649949  TIP3      5393            0.0000000000
     33529      5529  TIP3      H2             22.6796898214       25.5031537936      -34.9539128751  TIP3      5393            0.0000000000
     33530      5530  TIP3      OH2             7.3299404761       23.9903458445      -34.9426643502  TIP3      5394            0.0000000000
     33531      5530  TIP3      H1              6.5167231826       23.8309179232      -35.4553482919  TIP3      5394            0.0000000000
     33532      5530  TIP3      H2              7.8147878417       23.1512497410      -35.0551138171  TIP3      5394            0.0000000000
     33533      5531  TIP3      OH2             6.5569472261       23.6957347369      -39.4520953736  TIP3      5395            0.0000000000
     33534      5531  TIP3      H1              6.8587769437       24.5552658953      -39.8179109445  TIP3      5395            0.0000000000
     33535      5531  TIP3      H2              5.9071006734       23.9761632131      -38.7879282098  TIP3      5395            0.0000000000
     33536      5532  TIP3      OH2            11.9440514393       23.3022138856      -35.3277077826  TIP3      5396            0.0000000000
     33537      5532  TIP3      H1             12.7319377139       23.4416386729      -35.8638255282  TIP3      5396            0.0000000000
     33538      5532  TIP3      H2             12.1547276914       23.8134846853      -34.5297468744  TIP3      5396            0.0000000000
     33539      5533  TIP3      OH2            17.8768929384       23.7330789531      -34.5453802349  TIP3      5397            0.0000000000
     33540      5533  TIP3      H1             17.3703990730       24.1232706846      -35.2653362083  TIP3      5397            0.0000000000
     33541      5533  TIP3      H2             17.3156255167       22.9569654605      -34.2931590947  TIP3      5397            0.0000000000
     33542      5534  TIP3      OH2            19.3414424336       23.5846247048      -38.6308492447  TIP3      5398            0.0000000000
     33543      5534  TIP3      H1             18.8037306671       24.3614481336      -38.4125874058  TIP3      5398            0.0000000000
     33544      5534  TIP3      H2             18.8098509998       22.8951848281      -38.1722777224  TIP3      5398            0.0000000000
     33545      5535  TIP3      OH2             7.8751943140       25.7031046356      -40.6672151229  TIP3      5399            0.0000000000
     33546      5535  TIP3      H1              8.5412191445       25.2143291840      -41.1764401451  TIP3      5399            0.0000000000
     33547      5535  TIP3      H2              8.4679083266       26.2129828529      -40.0799051999  TIP3      5399            0.0000000000
     33548      5536  TIP3      OH2            13.3973601613       26.1420219809      -38.5744753297  TIP3      5400            0.0000000000
     33549      5536  TIP3      H1             13.7564349581       25.5303948054      -37.9048698708  TIP3      5400            0.0000000000
     33550      5536  TIP3      H2             13.5176223882       26.9922683219      -38.0919755545  TIP3      5400            0.0000000000
     33551      5537  TIP3      OH2             7.4929396642       24.4895860969      -26.1990499828  TIP3      5401            0.0000000000
     33552      5537  TIP3      H1              6.8142137503       23.9552268422      -25.7578314137  TIP3      5401            0.0000000000
     33553      5537  TIP3      H2              8.2200005888       24.4662986635      -25.5364501280  TIP3      5401            0.0000000000
     33554      5538  TIP3      OH2             9.1738192613       24.3249804013      -24.0881881094  TIP3      5402            0.0000000000
     33555      5538  TIP3      H1             10.0160984218       23.8520410173      -24.1684270148  TIP3      5402            0.0000000000
     33556      5538  TIP3      H2              8.8462857226       23.9496030462      -23.2406201146  TIP3      5402            0.0000000000
     33557      5539  TIP3      OH2            17.7954338560       22.8901315295      -24.1333824780  TIP3      5403            0.0000000000
     33558      5539  TIP3      H1             17.3505324479       22.0454230345      -24.3307284966  TIP3      5403            0.0000000000
     33559      5539  TIP3      H2             18.5383857224       22.9440245423      -24.7772356000  TIP3      5403            0.0000000000
     33560      5540  TIP3      OH2            26.4298616611       32.0108018024      -30.3922841443  TIP3      5404            0.0000000000
     33561      5540  TIP3      H1             26.1162478989       31.4753800355      -29.6476023615  TIP3      5404            0.0000000000
     33562      5540  TIP3      H2             26.6427567617       32.8734046291      -30.0195315826  TIP3      5404            0.0000000000
     33563      5541  TIP3      OH2            24.5473216069       29.8334230032      -36.6323509118  TIP3      5405            0.0000000000
     33564      5541  TIP3      H1             24.3292863848       30.4793486883      -35.9172063768  TIP3      5405            0.0000000000
     33565      5541  TIP3      H2             23.7030852416       29.8428659680      -37.1303124194  TIP3      5405            0.0000000000
     33566      5542  TIP3      OH2            24.7102385057       31.7667343493      -34.7686500495  TIP3      5406            0.0000000000
     33567      5542  TIP3      H1             24.9741129827       31.2702654092      -33.9705462950  TIP3      5406            0.0000000000
     33568      5542  TIP3      H2             25.5310757989       32.2025071832      -35.0475310709  TIP3      5406            0.0000000000
     33569      5543  TIP3      OH2            28.7317927296       26.9428179408      -34.0444250134  TIP3      5407            0.0000000000
     33570      5543  TIP3      H1             28.8844602254       27.8068870950      -34.4941679942  TIP3      5407            0.0000000000
     33571      5543  TIP3      H2             28.4068596142       26.4231798325      -34.8060217745  TIP3      5407            0.0000000000
     33572      5544  TIP3      OH2            25.7565504638       29.6149744227      -33.4312499283  TIP3      5408            0.0000000000
     33573      5544  TIP3      H1             26.3777778275       29.1503478284      -32.8265614849  TIP3      5408            0.0000000000
     33574      5544  TIP3      H2             26.0944646699       29.3282182209      -34.3022872990  TIP3      5408            0.0000000000
     33575      5545  TIP3      OH2            31.2842572614       31.3700244049      -33.8605511080  TIP3      5409            0.0000000000
     33576      5545  TIP3      H1             31.8276009548       30.5505154210      -33.7916508813  TIP3      5409            0.0000000000
     33577      5545  TIP3      H2             30.4408025366       31.0034327604      -34.1888733405  TIP3      5409            0.0000000000
     33578      5546  TIP3      OH2            28.0565756710       26.4704917858      -29.8302846494  TIP3      5410            0.0000000000
     33579      5546  TIP3      H1             27.7267451799       27.0450443671      -30.5574561339  TIP3      5410            0.0000000000
     33580      5546  TIP3      H2             27.3086399324       26.5696320679      -29.2018045005  TIP3      5410            0.0000000000
     33581      5547  TIP3      OH2            27.5091782546       28.1557806210      -31.9212299657  TIP3      5411            0.0000000000
     33582      5547  TIP3      H1             28.2569529886       28.6672841053      -31.5116700552  TIP3      5411            0.0000000000
     33583      5547  TIP3      H2             27.9736644225       27.7880665069      -32.7123948975  TIP3      5411            0.0000000000
     33584      5548  TIP3      OH2            31.5046166975       24.1586713925      -32.4794745092  TIP3      5412            0.0000000000
     33585      5548  TIP3      H1             32.0588008608       23.7068691544      -31.8323455904  TIP3      5412            0.0000000000
     33586      5548  TIP3      H2             30.6405757489       24.2247271987      -32.0259023004  TIP3      5412            0.0000000000
     33587      5549  TIP3      OH2            29.7516419096       31.9771525968      -31.5050835435  TIP3      5413            0.0000000000
     33588      5549  TIP3      H1             30.3857865575       31.6951338320      -32.1918991700  TIP3      5413            0.0000000000
     33589      5549  TIP3      H2             29.5129881837       32.8609461066      -31.8403917618  TIP3      5413            0.0000000000
     33590      5550  TIP3      OH2            28.0982940239       32.6736403207      -27.6072352090  TIP3      5414            0.0000000000
     33591      5550  TIP3      H1             28.3573599471       33.2184232174      -26.8493501758  TIP3      5414            0.0000000000
     33592      5550  TIP3      H2             27.1549276019       32.5703500419      -27.4350729022  TIP3      5414            0.0000000000
     33593      5551  TIP3      OH2            28.3266976735       32.2049916578      -37.3165953103  TIP3      5415            0.0000000000
     33594      5551  TIP3      H1             28.8728280712       32.7860778426      -37.8889048308  TIP3      5415            0.0000000000
     33595      5551  TIP3      H2             27.8275536281       31.7085035250      -37.9746653888  TIP3      5415            0.0000000000
     33596      5552  TIP3      OH2            28.8257800392       24.6589541315      -31.6086152116  TIP3      5416            0.0000000000
     33597      5552  TIP3      H1             27.9399633233       24.7703707428      -32.0011660309  TIP3      5416            0.0000000000
     33598      5552  TIP3      H2             28.7855281697       25.3585831085      -30.9173511035  TIP3      5416            0.0000000000
     33599      5553  TIP3      OH2            29.3740023919       29.4472631535      -30.6126562765  TIP3      5417            0.0000000000
     33600      5553  TIP3      H1             28.9050867775       29.6086860225      -29.7788034389  TIP3      5417            0.0000000000
     33601      5553  TIP3      H2             29.4386879192       30.3755037184      -30.9237599022  TIP3      5417            0.0000000000
     33602      5554  TIP3      OH2            29.1303491698       29.4449600703      -35.0920326323  TIP3      5418            0.0000000000
     33603      5554  TIP3      H1             28.3203355876       29.2621011310      -35.6114759353  TIP3      5418            0.0000000000
     33604      5554  TIP3      H2             29.7342403374       29.6444936057      -35.8241997945  TIP3      5418            0.0000000000
     33605      5555  TIP3      OH2            26.6865164114       29.5532624117      -29.0436341901  TIP3      5419            0.0000000000
     33606      5555  TIP3      H1             27.1927640224       29.8137801803      -28.2641663637  TIP3      5419            0.0000000000
     33607      5555  TIP3      H2             26.4970241738       28.6121238227      -28.8563644897  TIP3      5419            0.0000000000
     33608      5556  TIP3      OH2            30.0864442505       26.7146177355      -42.0176838706  TIP3      5420            0.0000000000
     33609      5556  TIP3      H1             29.9521086912       26.6518292245      -41.0507773572  TIP3      5420            0.0000000000
     33610      5556  TIP3      H2             29.5194813627       27.4770662206      -42.2006838499  TIP3      5420            0.0000000000
     33611      5557  TIP3      OH2            23.7322552489       26.8481024866      -34.7567648306  TIP3      5421            0.0000000000
     33612      5557  TIP3      H1             24.4799656457       26.8103817602      -34.1469602100  TIP3      5421            0.0000000000
     33613      5557  TIP3      H2             23.9727274656       27.5731398943      -35.3414085208  TIP3      5421            0.0000000000
     33614      5558  TIP3      OH2            24.8417138230       27.7365174020      -39.2904709565  TIP3      5422            0.0000000000
     33615      5558  TIP3      H1             25.3007500414       28.0330340840      -40.1080770467  TIP3      5422            0.0000000000
     33616      5558  TIP3      H2             24.7101164551       28.5627345267      -38.7989866496  TIP3      5422            0.0000000000
     33617      5559  TIP3      OH2            31.4984543259       26.8926619341      -34.2582969965  TIP3      5423            0.0000000000
     33618      5559  TIP3      H1             30.5608026439       26.7733032903      -34.0237662821  TIP3      5423            0.0000000000
     33619      5559  TIP3      H2             31.7868139394       27.5543761271      -33.5925688111  TIP3      5423            0.0000000000
     33620      5560  TIP3      OH2            26.6570280730       28.2729299868      -35.9212695187  TIP3      5424            0.0000000000
     33621      5560  TIP3      H1             25.9502482588       28.7321775273      -36.4383935207  TIP3      5424            0.0000000000
     33622      5560  TIP3      H2             26.7239449120       27.3969170105      -36.3645727925  TIP3      5424            0.0000000000
     33623      5561  TIP3      OH2            30.3882796576       29.3388910739      -37.8992929010  TIP3      5425            0.0000000000
     33624      5561  TIP3      H1             31.2743895606       29.7108862231      -37.7870581508  TIP3      5425            0.0000000000
     33625      5561  TIP3      H2             30.1726910832       29.4966320533      -38.8338229865  TIP3      5425            0.0000000000
     33626      5562  TIP3      OH2            29.2189925938       30.0077590698      -41.0617408686  TIP3      5426            0.0000000000
     33627      5562  TIP3      H1             28.4904596229       30.2147561197      -41.6683753553  TIP3      5426            0.0000000000
     33628      5562  TIP3      H2             29.9784051657       30.3428028599      -41.5781429974  TIP3      5426            0.0000000000
     33629      5563  TIP3      OH2            32.4485883093       29.0294725886      -33.0816758848  TIP3      5427            0.0000000000
     33630      5563  TIP3      H1             33.3129380387       29.2984238701      -33.4700037845  TIP3      5427            0.0000000000
     33631      5563  TIP3      H2             32.7179369196       29.0034251568      -32.1464584820  TIP3      5427            0.0000000000
     33632      5564  TIP3      OH2            27.9184600543       25.5874421074      -36.5349681261  TIP3      5428            0.0000000000
     33633      5564  TIP3      H1             27.2805408653       25.0061722080      -36.0646513432  TIP3      5428            0.0000000000
     33634      5564  TIP3      H2             28.6745087071       24.9933106346      -36.6530331859  TIP3      5428            0.0000000000
     33635      5565  TIP3      OH2            31.6611361952       28.2434052198      -29.7770519126  TIP3      5429            0.0000000000
     33636      5565  TIP3      H1             30.8782018857       28.7862806761      -30.0062618170  TIP3      5429            0.0000000000
     33637      5565  TIP3      H2             32.3659942872       28.8243505582      -30.1162118501  TIP3      5429            0.0000000000
     33638      5566  TIP3      OH2            24.0615065708       32.3373377424      -27.1467145075  TIP3      5430            0.0000000000
     33639      5566  TIP3      H1             23.6793920005       31.6432030205      -26.5567178055  TIP3      5430            0.0000000000
     33640      5566  TIP3      H2             23.4155843757       32.3631449743      -27.8784472236  TIP3      5430            0.0000000000
     33641      5567  TIP3      OH2            31.5418737915       30.7411897120      -25.6327750508  TIP3      5431            0.0000000000
     33642      5567  TIP3      H1             30.9183725257       30.0935181516      -26.0200610219  TIP3      5431            0.0000000000
     33643      5567  TIP3      H2             32.3791956193       30.2580442339      -25.6950376047  TIP3      5431            0.0000000000
     33644      5568  TIP3      OH2            25.8619447409       31.3949228416      -41.2597463631  TIP3      5432            0.0000000000
     33645      5568  TIP3      H1             26.0522461238       32.3182331886      -41.0323678930  TIP3      5432            0.0000000000
     33646      5568  TIP3      H2             24.8867112744       31.4770336807      -41.2810142114  TIP3      5432            0.0000000000
     33647      5569  TIP3      OH2            26.0499572661       27.0661238132      -28.0098721717  TIP3      5433            0.0000000000
     33648      5569  TIP3      H1             25.4550680793       27.5791901394      -27.4241073044  TIP3      5433            0.0000000000
     33649      5569  TIP3      H2             26.0971403844       26.2327320200      -27.5101143888  TIP3      5433            0.0000000000
     33650      5570  TIP3      OH2            33.0665105699       28.7106254376      -36.1245164352  TIP3      5434            0.0000000000
     33651      5570  TIP3      H1             33.7041829986       28.1061330499      -35.6754645658  TIP3      5434            0.0000000000
     33652      5570  TIP3      H2             32.2544620126       28.2057401190      -35.9609326620  TIP3      5434            0.0000000000
     33653      5571  TIP3      OH2            29.0590846073       26.6500279814      -39.4614220689  TIP3      5435            0.0000000000
     33654      5571  TIP3      H1             28.9031853546       27.3083615143      -38.7571626418  TIP3      5435            0.0000000000
     33655      5571  TIP3      H2             29.5218619927       25.9535003553      -38.9515444123  TIP3      5435            0.0000000000
     33656      5572  TIP3      OH2            25.7713604973       28.7425725456      -41.6841545754  TIP3      5436            0.0000000000
     33657      5572  TIP3      H1             26.4593388980       29.3717466807      -41.3938655317  TIP3      5436            0.0000000000
     33658      5572  TIP3      H2             25.0175799598       29.3550743373      -41.7391990419  TIP3      5436            0.0000000000
     33659      5573  TIP3      OH2            26.1320554442       24.3321749709      -32.2199570889  TIP3      5437            0.0000000000
     33660      5573  TIP3      H1             26.3269532326       24.2329950596      -33.1748992302  TIP3      5437            0.0000000000
     33661      5573  TIP3      H2             26.0491938078       23.3803855722      -31.9634085564  TIP3      5437            0.0000000000
     33662      5574  TIP3      OH2            25.7916060571       31.5746085210      -24.1291614154  TIP3      5438            0.0000000000
     33663      5574  TIP3      H1             26.5765383545       31.0051968173      -24.1586945211  TIP3      5438            0.0000000000
     33664      5574  TIP3      H2             25.7368746106       31.7531208282      -23.1675779720  TIP3      5438            0.0000000000
     33665      5575  TIP3      OH2            29.7696017664       32.6070271918      -39.6345008104  TIP3      5439            0.0000000000
     33666      5575  TIP3      H1             30.0200316682       31.6896175092      -39.4645594113  TIP3      5439            0.0000000000
     33667      5575  TIP3      H2             29.9885465458       32.7027357176      -40.5726854342  TIP3      5439            0.0000000000
     33668      5576  TIP3      OH2            29.7195031378       30.5053459086      -28.0586042769  TIP3      5440            0.0000000000
     33669      5576  TIP3      H1             29.2310127004       31.3231130482      -27.8364790444  TIP3      5440            0.0000000000
     33670      5576  TIP3      H2             30.5816337228       30.8799001573      -28.3219160091  TIP3      5440            0.0000000000
     33671      5577  TIP3      OH2            31.7899412162       31.3256609058      -41.9126814864  TIP3      5441            0.0000000000
     33672      5577  TIP3      H1             31.8203096404       30.7632790280      -42.6991664903  TIP3      5441            0.0000000000
     33673      5577  TIP3      H2             32.6845782700       31.6990840295      -41.9014367237  TIP3      5441            0.0000000000
     33674      5578  TIP3      OH2            30.2785086592       28.3863975314      -26.5179106282  TIP3      5442            0.0000000000
     33675      5578  TIP3      H1             30.3390073492       27.5607564578      -27.0478542915  TIP3      5442            0.0000000000
     33676      5578  TIP3      H2             29.9307007805       29.0350556184      -27.1785606726  TIP3      5442            0.0000000000
     33677      5579  TIP3      OH2            30.3218577628       26.3059064529      -28.4053560432  TIP3      5443            0.0000000000
     33678      5579  TIP3      H1             30.8549323733       26.9551977985      -28.9315361877  TIP3      5443            0.0000000000
     33679      5579  TIP3      H2             29.4580739694       26.3763869242      -28.8671376988  TIP3      5443            0.0000000000
     33680      5580  TIP3      OH2            32.2084678596       31.8873764116      -28.7882283830  TIP3      5444            0.0000000000
     33681      5580  TIP3      H1             32.6845725351       32.2415283154      -29.5574875304  TIP3      5444            0.0000000000
     33682      5580  TIP3      H2             31.6212159177       32.6350104460      -28.5493018742  TIP3      5444            0.0000000000
     33683      5581  TIP3      OH2            28.3470347859       29.4825011628      -24.7019732595  TIP3      5445            0.0000000000
     33684      5581  TIP3      H1             27.7399122842       28.7319554570      -24.5664891188  TIP3      5445            0.0000000000
     33685      5581  TIP3      H2             29.1232181337       29.0268195412      -25.0691332918  TIP3      5445            0.0000000000
     33686      5582  TIP3      OH2            30.9750690199       23.8272851584      -29.1280554978  TIP3      5446            0.0000000000
     33687      5582  TIP3      H1             30.6546773541       24.7477178337      -28.9863695310  TIP3      5446            0.0000000000
     33688      5582  TIP3      H2             30.1379524590       23.3272393925      -29.1448192568  TIP3      5446            0.0000000000
     33689      5583  TIP3      OH2            32.2227715929       28.1841226204      -23.8976379717  TIP3      5447            0.0000000000
     33690      5583  TIP3      H1             31.6221582126       27.8953604578      -23.1906585851  TIP3      5447            0.0000000000
     33691      5583  TIP3      H2             31.6652955726       28.1064245169      -24.6803710955  TIP3      5447            0.0000000000
     33692      5584  TIP3      OH2            26.2756788255       27.3984950955      -24.2532633672  TIP3      5448            0.0000000000
     33693      5584  TIP3      H1             26.3686344810       26.5822752643      -24.7782290079  TIP3      5448            0.0000000000
     33694      5584  TIP3      H2             26.5800289818       27.1107693828      -23.3607491085  TIP3      5448            0.0000000000
     33695      5585  TIP3      OH2            31.9448344520       22.9114966387      -26.7363986864  TIP3      5449            0.0000000000
     33696      5585  TIP3      H1             32.5301635428       23.3520215466      -26.1040872253  TIP3      5449            0.0000000000
     33697      5585  TIP3      H2             31.6541811973       23.5921990396      -27.3689835856  TIP3      5449            0.0000000000
     33698      5586  TIP3      OH2            24.3191087598       28.1913048076      -25.8249728992  TIP3      5450            0.0000000000
     33699      5586  TIP3      H1             24.9264210884       28.2083687251      -25.0483900617  TIP3      5450            0.0000000000
     33700      5586  TIP3      H2             24.0279369689       27.2525450886      -25.8082030464  TIP3      5450            0.0000000000
     33701      5587  TIP3      OH2            25.1284828875       26.7079750995      -31.5583464737  TIP3      5451            0.0000000000
     33702      5587  TIP3      H1             25.4202077126       25.7775232580      -31.6594583602  TIP3      5451            0.0000000000
     33703      5587  TIP3      H2             25.9425652288       27.1996156268      -31.7735706621  TIP3      5451            0.0000000000
     33704      5588  TIP3      OH2            24.0917269380       30.1411596827      -31.3037640932  TIP3      5452            0.0000000000
     33705      5588  TIP3      H1             24.5657102847       29.8901976330      -32.1304038678  TIP3      5452            0.0000000000
     33706      5588  TIP3      H2             24.8160652612       30.0034371447      -30.6700782437  TIP3      5452            0.0000000000
     33707      5589  TIP3      OH2            24.1631413221       25.7311942234      -37.7148234046  TIP3      5453            0.0000000000
     33708      5589  TIP3      H1             23.2940033626       25.3536905694      -37.9108497788  TIP3      5453            0.0000000000
     33709      5589  TIP3      H2             24.1729380178       26.5681360903      -38.2257744700  TIP3      5453            0.0000000000
     33710      5590  TIP3      OH2            23.5202485671       24.5714040832      -29.2321439551  TIP3      5454            0.0000000000
     33711      5590  TIP3      H1             23.0017532270       24.0896720847      -28.5584848725  TIP3      5454            0.0000000000
     33712      5590  TIP3      H2             22.9548086307       25.3174401474      -29.4911726301  TIP3      5454            0.0000000000
     33713      5591  TIP3      OH2            26.3777098818       23.8450927842      -34.9572903649  TIP3      5455            0.0000000000
     33714      5591  TIP3      H1             25.4532133606       23.7513838253      -35.2757766976  TIP3      5455            0.0000000000
     33715      5591  TIP3      H2             26.7562672408       22.9579892765      -35.1567824386  TIP3      5455            0.0000000000
     33716      5592  TIP3      OH2            25.2247107479       23.8962926156      -39.7666181290  TIP3      5456            0.0000000000
     33717      5592  TIP3      H1             25.8639172347       24.5590011055      -40.1136710029  TIP3      5456            0.0000000000
     33718      5592  TIP3      H2             24.9685695766       24.2472481541      -38.8926167762  TIP3      5456            0.0000000000
     33719      5593  TIP3      OH2            30.6329847009       23.8499348454      -35.1192203302  TIP3      5457            0.0000000000
     33720      5593  TIP3      H1             31.4265543937       24.1615343043      -35.5814240049  TIP3      5457            0.0000000000
     33721      5593  TIP3      H2             30.9042666699       23.9896882639      -34.1785970637  TIP3      5457            0.0000000000
     33722      5594  TIP3      OH2            27.1076635616       25.4742860191      -41.0864165289  TIP3      5458            0.0000000000
     33723      5594  TIP3      H1             27.6730911163       24.8076279011      -41.5070779685  TIP3      5458            0.0000000000
     33724      5594  TIP3      H2             27.7487667470       26.0918189904      -40.6761680760  TIP3      5458            0.0000000000
     33725      5595  TIP3      OH2            31.1726001154       24.9767699231      -38.4007988348  TIP3      5459            0.0000000000
     33726      5595  TIP3      H1             31.9384156653       24.6732096938      -37.8770035976  TIP3      5459            0.0000000000
     33727      5595  TIP3      H2             31.5827347333       25.6570168137      -38.9341639433  TIP3      5459            0.0000000000
     33728      5596  TIP3      OH2            26.0392170673       24.8860655857      -25.8847589791  TIP3      5460            0.0000000000
     33729      5596  TIP3      H1             25.3547844099       24.2008125510      -25.7713109610  TIP3      5460            0.0000000000
     33730      5596  TIP3      H2             26.7368079646       24.5689141551      -25.2754004907  TIP3      5460            0.0000000000
     33731      5597  TIP3      OH2            28.1349493662       23.8229399024      -23.8462847500  TIP3      5461            0.0000000000
     33732      5597  TIP3      H1             29.0337124727       24.1641366909      -23.9760283269  TIP3      5461            0.0000000000
     33733      5597  TIP3      H2             28.3271557794       22.8643291262      -23.7988968896  TIP3      5461            0.0000000000
     33734      5598  TIP3      OH2           -15.4040770584      -18.0211717469      -22.4191821271  TIP3      5462            0.0000000000
     33735      5598  TIP3      H1            -15.5791622488      -17.2594737044      -21.8238696202  TIP3      5462            0.0000000000
     33736      5598  TIP3      H2            -14.5186960357      -18.2837754582      -22.1236595842  TIP3      5462            0.0000000000
     33737      5599  TIP3      OH2           -20.0514474166      -16.0103348575      -21.9438715104  TIP3      5463            0.0000000000
     33738      5599  TIP3      H1            -19.3278002156      -16.4753791839      -22.3887450926  TIP3      5463            0.0000000000
     33739      5599  TIP3      H2            -19.5846712962      -15.1883719773      -21.6206604537  TIP3      5463            0.0000000000
     33740      5600  TIP3      OH2           -18.3519407406      -23.3101673571      -22.0625206098  TIP3      5464            0.0000000000
     33741      5600  TIP3      H1            -18.7441930839      -24.1235577352      -22.4314683265  TIP3      5464            0.0000000000
     33742      5600  TIP3      H2            -17.4798328755      -23.3058014660      -22.4949821618  TIP3      5464            0.0000000000
     33743      5601  TIP3      OH2           -32.5387236595      -29.7896379318      -20.9192784339  TIP3      5465            0.0000000000
     33744      5601  TIP3      H1            -31.7766666495      -29.4285098179      -20.4427264313  TIP3      5465            0.0000000000
     33745      5601  TIP3      H2            -33.2737712070      -29.4841827805      -20.3439283519  TIP3      5465            0.0000000000
     33746      5602  TIP3      OH2           -27.6634375480      -26.4395749341      -21.9283284072  TIP3      5466            0.0000000000
     33747      5602  TIP3      H1            -27.7449387082      -26.4967664927      -22.9010179521  TIP3      5466            0.0000000000
     33748      5602  TIP3      H2            -26.8023621192      -26.0104052420      -21.8114662808  TIP3      5466            0.0000000000
     33749      5603  TIP3      OH2           -20.6777791995      -28.8355908835      -22.3040627052  TIP3      5467            0.0000000000
     33750      5603  TIP3      H1            -21.3286333042      -28.3817721744      -21.7339803338  TIP3      5467            0.0000000000
     33751      5603  TIP3      H2            -20.1859399185      -28.0334521620      -22.5890443643  TIP3      5467            0.0000000000
     33752      5604  TIP3      OH2           -30.1613609213      -24.1945149346      -22.8663437027  TIP3      5468            0.0000000000
     33753      5604  TIP3      H1            -29.3837072465      -24.0539120447      -22.3099731001  TIP3      5468            0.0000000000
     33754      5604  TIP3      H2            -30.5964822029      -24.9013278694      -22.3582283366  TIP3      5468            0.0000000000
     33755      5605  TIP3      OH2           -24.8463773248      -19.3806218580      -23.7414231405  TIP3      5469            0.0000000000
     33756      5605  TIP3      H1            -25.3019248616      -19.3485456280      -24.5950551457  TIP3      5469            0.0000000000
     33757      5605  TIP3      H2            -24.5168346140      -20.2905712390      -23.7848497195  TIP3      5469            0.0000000000
     33758      5606  TIP3      OH2           -29.2856181429      -23.0250741649      -19.9568586399  TIP3      5470            0.0000000000
     33759      5606  TIP3      H1            -29.1184760426      -22.1126486744      -19.7124743491  TIP3      5470            0.0000000000
     33760      5606  TIP3      H2            -28.3771319327      -23.3995829611      -19.8683607452  TIP3      5470            0.0000000000
     33761      5607  TIP3      OH2           -23.5431658543      -18.4102423476      -20.5667047528  TIP3      5471            0.0000000000
     33762      5607  TIP3      H1            -24.2542620714      -17.9233691735      -20.1189476133  TIP3      5471            0.0000000000
     33763      5607  TIP3      H2            -23.1325342028      -17.6183104738      -20.9676471649  TIP3      5471            0.0000000000
     33764      5608  TIP3      OH2           -30.7482504399      -27.1473594702      -21.6239956814  TIP3      5472            0.0000000000
     33765      5608  TIP3      H1            -29.7996749420      -27.3383887371      -21.6887501675  TIP3      5472            0.0000000000
     33766      5608  TIP3      H2            -31.0591119592      -27.2562852582      -22.5244935177  TIP3      5472            0.0000000000
     33767      5609  TIP3      OH2           -22.9896984529      -17.0115775611      -23.6893902988  TIP3      5473            0.0000000000
     33768      5609  TIP3      H1            -23.3702894917      -17.9060422259      -23.5805354715  TIP3      5473            0.0000000000
     33769      5609  TIP3      H2            -22.0997131018      -17.2225609301      -24.0621592496  TIP3      5473            0.0000000000
     33770      5610  TIP3      OH2           -18.2728172701      -17.7819345310      -23.4056029391  TIP3      5474            0.0000000000
     33771      5610  TIP3      H1            -17.5667740573      -17.9701438480      -22.7574710346  TIP3      5474            0.0000000000
     33772      5610  TIP3      H2            -17.6947760374      -17.5190632530      -24.1529952333  TIP3      5474            0.0000000000
     33773      5611  TIP3      OH2           -22.0602788507      -20.4444098616      -24.1128208633  TIP3      5475            0.0000000000
     33774      5611  TIP3      H1            -22.4677738463      -20.7214291893      -23.2897222119  TIP3      5475            0.0000000000
     33775      5611  TIP3      H2            -21.7575969635      -21.3354875795      -24.4197672049  TIP3      5475            0.0000000000
     33776      5612  TIP3      OH2           -25.2401386564      -25.4587712069      -23.2505830574  TIP3      5476            0.0000000000
     33777      5612  TIP3      H1            -25.2463470818      -24.9094085721      -24.0621881268  TIP3      5476            0.0000000000
     33778      5612  TIP3      H2            -24.6614854740      -24.9562297071      -22.6571840451  TIP3      5476            0.0000000000
     33779      5613  TIP3      OH2           -15.9240285993      -23.0853911776      -23.5977230654  TIP3      5477            0.0000000000
     33780      5613  TIP3      H1            -16.0824659834      -23.3218810910      -24.5351084537  TIP3      5477            0.0000000000
     33781      5613  TIP3      H2            -15.8332208451      -22.0996814041      -23.6298434679  TIP3      5477            0.0000000000
     33782      5614  TIP3      OH2           -31.3098812282      -20.3710240005      -22.6099028157  TIP3      5478            0.0000000000
     33783      5614  TIP3      H1            -31.9676932034      -19.6660097703      -22.5463203973  TIP3      5478            0.0000000000
     33784      5614  TIP3      H2            -31.6909912409      -20.9196549661      -23.3161781498  TIP3      5478            0.0000000000
     33785      5615  TIP3      OH2           -14.5401723818      -23.8776558517      -21.4352966551  TIP3      5479            0.0000000000
     33786      5615  TIP3      H1            -15.0465143303      -23.6475236852      -22.2463346397  TIP3      5479            0.0000000000
     33787      5615  TIP3      H2            -14.8624273973      -24.8040095665      -21.3752347600  TIP3      5479            0.0000000000
     33788      5616  TIP3      OH2           -15.5996455724      -26.2734155032      -22.1325228736  TIP3      5480            0.0000000000
     33789      5616  TIP3      H1            -15.6683483899      -26.2543611944      -23.1005066183  TIP3      5480            0.0000000000
     33790      5616  TIP3      H2            -16.1293464510      -27.0658799057      -21.9300679039  TIP3      5480            0.0000000000
     33791      5617  TIP3      OH2           -16.4919660636      -29.0244157932      -23.1079204256  TIP3      5481            0.0000000000
     33792      5617  TIP3      H1            -17.1453083260      -29.3521235398      -22.4766656822  TIP3      5481            0.0000000000
     33793      5617  TIP3      H2            -16.5339690474      -29.6843513432      -23.8198893768  TIP3      5481            0.0000000000
     33794      5618  TIP3      OH2           -23.0852347633      -15.7497471247      -21.2259247424  TIP3      5482            0.0000000000
     33795      5618  TIP3      H1            -22.2259170560      -15.2912247523      -21.2394485870  TIP3      5482            0.0000000000
     33796      5618  TIP3      H2            -23.1899441216      -15.9157611373      -22.1820416064  TIP3      5482            0.0000000000
     33797      5619  TIP3      OH2             4.6976111795      -18.8566450700      -22.6520349785  TIP3      5483            0.0000000000
     33798      5619  TIP3      H1              4.3806381820      -17.9392454937      -22.4779090252  TIP3      5483            0.0000000000
     33799      5619  TIP3      H2              5.2311523003      -18.9840707447      -21.8597481095  TIP3      5483            0.0000000000
     33800      5620  TIP3      OH2            -4.5297286614      -30.1479574118      -22.3464387142  TIP3      5484            0.0000000000
     33801      5620  TIP3      H1             -4.8747128865      -30.0613784327      -21.4267221364  TIP3      5484            0.0000000000
     33802      5620  TIP3      H2             -5.2423184203      -30.6948578291      -22.7023930413  TIP3      5484            0.0000000000
     33803      5621  TIP3      OH2            -7.8602280101      -29.3143242606      -23.2647147573  TIP3      5485            0.0000000000
     33804      5621  TIP3      H1             -7.7451612642      -29.1074413550      -22.3012867087  TIP3      5485            0.0000000000
     33805      5621  TIP3      H2             -8.2155465710      -28.4729046382      -23.6026657006  TIP3      5485            0.0000000000
     33806      5622  TIP3      OH2            -9.4080971567      -26.7547241724      -21.4878147738  TIP3      5486            0.0000000000
     33807      5622  TIP3      H1             -9.0318148539      -26.7347708026      -22.3833004857  TIP3      5486            0.0000000000
     33808      5622  TIP3      H2             -8.8171429680      -27.4210282550      -21.0466326989  TIP3      5486            0.0000000000
     33809      5623  TIP3      OH2            -2.0655373975      -28.7045797900      -21.8336211395  TIP3      5487            0.0000000000
     33810      5623  TIP3      H1             -2.8929576968      -29.2386214842      -21.8133830400  TIP3      5487            0.0000000000
     33811      5623  TIP3      H2             -1.5088991941      -29.2921616711      -22.3954241525  TIP3      5487            0.0000000000
     33812      5624  TIP3      OH2            -3.3154642665      -19.8430913274      -21.2123368334  TIP3      5488            0.0000000000
     33813      5624  TIP3      H1             -3.0473684304      -18.9243066956      -21.0202069416  TIP3      5488            0.0000000000
     33814      5624  TIP3      H2             -3.6416486323      -20.0774664464      -20.3328623726  TIP3      5488            0.0000000000
     33815      5625  TIP3      OH2           -11.9101864052      -24.4395557107      -21.9665828148  TIP3      5489            0.0000000000
     33816      5625  TIP3      H1            -11.3591391167      -23.8941607043      -21.3642549186  TIP3      5489            0.0000000000
     33817      5625  TIP3      H2            -12.8064790337      -24.1224057813      -21.7429304346  TIP3      5489            0.0000000000
     33818      5626  TIP3      OH2             4.2969842216      -16.2927814831      -22.2530943574  TIP3      5490            0.0000000000
     33819      5626  TIP3      H1              4.8652151239      -15.5085755871      -22.1714098346  TIP3      5490            0.0000000000
     33820      5626  TIP3      H2              3.8340806532      -16.2359331849      -21.3731932329  TIP3      5490            0.0000000000
     33821      5627  TIP3      OH2            -5.5806815156      -18.9445897835      -23.6853536088  TIP3      5491            0.0000000000
     33822      5627  TIP3      H1             -5.7020253709      -19.7125582371      -24.2747210952  TIP3      5491            0.0000000000
     33823      5627  TIP3      H2             -6.0252420380      -19.2710480912      -22.8982835170  TIP3      5491            0.0000000000
     33824      5628  TIP3      OH2           -11.8708685187      -27.3845328236      -22.5475713265  TIP3      5492            0.0000000000
     33825      5628  TIP3      H1            -11.1558749751      -27.2410158972      -21.8897853859  TIP3      5492            0.0000000000
     33826      5628  TIP3      H2            -12.3581229797      -26.5493069368      -22.4534373334  TIP3      5492            0.0000000000
     33827      5629  TIP3      OH2            -3.4715021048      -16.9019586884      -23.3714043840  TIP3      5493            0.0000000000
     33828      5629  TIP3      H1             -4.0383759948      -17.6848504034      -23.2489509087  TIP3      5493            0.0000000000
     33829      5629  TIP3      H2             -2.6749284198      -17.2930371833      -23.7862705528  TIP3      5493            0.0000000000
     33830      5630  TIP3      OH2             1.0984793087      -17.6113091056      -23.4288301252  TIP3      5494            0.0000000000
     33831      5630  TIP3      H1              1.3854056290      -17.4259071438      -22.5189693183  TIP3      5494            0.0000000000
     33832      5630  TIP3      H2              1.8609918087      -17.3700538102      -23.9896878157  TIP3      5494            0.0000000000
     33833      5631  TIP3      OH2            -2.0192246437      -20.3904098928      -23.6641482197  TIP3      5495            0.0000000000
     33834      5631  TIP3      H1             -2.5645670685      -20.3085847584      -22.8554291326  TIP3      5495            0.0000000000
     33835      5631  TIP3      H2             -2.1839102406      -21.3247903807      -23.9149431808  TIP3      5495            0.0000000000
     33836      5632  TIP3      OH2            -5.9737138694      -24.9066618332      -23.1380685094  TIP3      5496            0.0000000000
     33837      5632  TIP3      H1             -6.3219146261      -25.7207452627      -23.5315058807  TIP3      5496            0.0000000000
     33838      5632  TIP3      H2             -5.1723784235      -24.7714713981      -23.6561473721  TIP3      5496            0.0000000000
     33839      5633  TIP3      OH2           -12.6061189304      -20.2212571308      -22.8455018340  TIP3      5497            0.0000000000
     33840      5633  TIP3      H1            -11.7471833554      -20.4077086625      -22.3982620456  TIP3      5497            0.0000000000
     33841      5633  TIP3      H2            -12.7445261757      -21.0231387362      -23.3947123937  TIP3      5497            0.0000000000
     33842      5634  TIP3      OH2           -10.3587413461      -15.3741804746      -23.1142131744  TIP3      5498            0.0000000000
     33843      5634  TIP3      H1            -11.2457911325      -15.6486367899      -22.8345251549  TIP3      5498            0.0000000000
     33844      5634  TIP3      H2             -9.8393604051      -16.1810486218      -23.0046773891  TIP3      5498            0.0000000000
     33845      5635  TIP3      OH2            21.3932082505      -32.1887765881      -20.4804300216  TIP3      5499            0.0000000000
     33846      5635  TIP3      H1             20.9963810073      -32.7600688316      -21.1769479047  TIP3      5499            0.0000000000
     33847      5635  TIP3      H2             21.9230081724      -31.5820358046      -21.0424812702  TIP3      5499            0.0000000000
     33848      5636  TIP3      OH2            21.4136841833      -18.4904078043      -22.1639149558  TIP3      5500            0.0000000000
     33849      5636  TIP3      H1             21.3425736131      -18.1882331514      -21.2465348930  TIP3      5500            0.0000000000
     33850      5636  TIP3      H2             22.2833996395      -18.1327246589      -22.3996854910  TIP3      5500            0.0000000000
     33851      5637  TIP3      OH2            18.9853568108      -22.8212961354      -22.5038406412  TIP3      5501            0.0000000000
     33852      5637  TIP3      H1             19.0694991094      -23.0612908970      -23.4518349269  TIP3      5501            0.0000000000
     33853      5637  TIP3      H2             19.6302700861      -23.4377125798      -22.0926867923  TIP3      5501            0.0000000000
     33854      5638  TIP3      OH2            14.4493014954      -30.0668247594      -22.0199584724  TIP3      5502            0.0000000000
     33855      5638  TIP3      H1             13.6454244590      -29.5319070053      -21.9430206728  TIP3      5502            0.0000000000
     33856      5638  TIP3      H2             14.1096473289      -30.6762773216      -22.7143684925  TIP3      5502            0.0000000000
     33857      5639  TIP3      OH2            11.1648693345      -29.2150302154      -22.9076806573  TIP3      5503            0.0000000000
     33858      5639  TIP3      H1             10.3671184969      -29.4521091829      -22.3949274592  TIP3      5503            0.0000000000
     33859      5639  TIP3      H2             10.7953277270      -28.5324066013      -23.5122930255  TIP3      5503            0.0000000000
     33860      5640  TIP3      OH2             7.3744151677      -23.9499451678      -21.5528253650  TIP3      5504            0.0000000000
     33861      5640  TIP3      H1              7.0951072659      -24.7841679120      -21.1250528647  TIP3      5504            0.0000000000
     33862      5640  TIP3      H2              6.5666008295      -23.4235617755      -21.6232653149  TIP3      5504            0.0000000000
     33863      5641  TIP3      OH2            18.6213908629      -20.1223273265      -22.2887044275  TIP3      5505            0.0000000000
     33864      5641  TIP3      H1             19.1107470819      -20.3570447165      -21.4907769787  TIP3      5505            0.0000000000
     33865      5641  TIP3      H2             18.5089244739      -21.0294283284      -22.6504511281  TIP3      5505            0.0000000000
     33866      5642  TIP3      OH2            15.3005994838      -17.0306370078      -23.3485712695  TIP3      5506            0.0000000000
     33867      5642  TIP3      H1             14.6980249147      -17.7830051098      -23.2107762088  TIP3      5506            0.0000000000
     33868      5642  TIP3      H2             15.9974573960      -17.4382871973      -23.8949822035  TIP3      5506            0.0000000000
     33869      5643  TIP3      OH2            19.2485662465      -17.6408104520      -23.7853273649  TIP3      5507            0.0000000000
     33870      5643  TIP3      H1             19.8568065411      -17.9414873616      -23.0832963728  TIP3      5507            0.0000000000
     33871      5643  TIP3      H2             19.8801773835      -17.5231127619      -24.5224749815  TIP3      5507            0.0000000000
     33872      5644  TIP3      OH2            15.5668976712      -20.2807087954      -24.3519122671  TIP3      5508            0.0000000000
     33873      5644  TIP3      H1             14.6401090805      -20.4162511895      -24.1040212575  TIP3      5508            0.0000000000
     33874      5644  TIP3      H2             15.8699739507      -21.2195221627      -24.2764147494  TIP3      5508            0.0000000000
     33875      5645  TIP3      OH2            12.0157759245      -23.6153655244      -20.9240435165  TIP3      5509            0.0000000000
     33876      5645  TIP3      H1             11.1909720826      -24.0021493187      -21.2325858575  TIP3      5509            0.0000000000
     33877      5645  TIP3      H2             12.6130697284      -24.0767473811      -21.5498688181  TIP3      5509            0.0000000000
     33878      5646  TIP3      OH2            13.1220591470      -25.2636086332      -22.7150391904  TIP3      5510            0.0000000000
     33879      5646  TIP3      H1             12.6431003728      -25.9291420685      -23.2391523319  TIP3      5510            0.0000000000
     33880      5646  TIP3      H2             13.7214757016      -24.8682270337      -23.3681409053  TIP3      5510            0.0000000000
     33881      5647  TIP3      OH2            21.9774016166      -23.3648677647      -23.1168100209  TIP3      5511            0.0000000000
     33882      5647  TIP3      H1             21.6851817655      -23.5913972379      -24.0151787070  TIP3      5511            0.0000000000
     33883      5647  TIP3      H2             21.8533962204      -22.3877841134      -23.1454275649  TIP3      5511            0.0000000000
     33884      5648  TIP3      OH2            12.6099610080      -13.9189435865      -20.9241618064  TIP3      5512            0.0000000000
     33885      5648  TIP3      H1             12.7093060222      -14.8539250295      -21.1726279608  TIP3      5512            0.0000000000
     33886      5648  TIP3      H2             11.6780961276      -13.8667939006      -20.6730185911  TIP3      5512            0.0000000000
     33887      5649  TIP3      OH2             7.1529606751      -20.6853449444      -22.8644521259  TIP3      5513            0.0000000000
     33888      5649  TIP3      H1              7.2133763313      -19.9847721177      -23.5506139681  TIP3      5513            0.0000000000
     33889      5649  TIP3      H2              6.4013459495      -21.2106624680      -23.2323619158  TIP3      5513            0.0000000000
     33890      5650  TIP3      OH2            22.3872152540      -26.9935674149      -23.3133634643  TIP3      5514            0.0000000000
     33891      5650  TIP3      H1             22.5251479326      -26.0559963365      -23.0994340735  TIP3      5514            0.0000000000
     33892      5650  TIP3      H2             21.6902193765      -26.9839673934      -23.9830718216  TIP3      5514            0.0000000000
     33893      5651  TIP3      OH2            20.3498983722      -29.8245363979      -23.7919378092  TIP3      5515            0.0000000000
     33894      5651  TIP3      H1             20.9427816882      -29.7006468258      -23.0421528139  TIP3      5515            0.0000000000
     33895      5651  TIP3      H2             19.6251142194      -30.3541756879      -23.4041359165  TIP3      5515            0.0000000000
     33896      5652  TIP3      OH2            22.8564731778      -30.6121254846      -22.1067921817  TIP3      5516            0.0000000000
     33897      5652  TIP3      H1             23.5323574849      -31.1826741934      -22.5441382561  TIP3      5516            0.0000000000
     33898      5652  TIP3      H2             23.2184290848      -29.7168518769      -22.2071157066  TIP3      5516            0.0000000000
     33899      5653  TIP3      OH2             6.7079889970      -32.5110791294      -20.6674180359  TIP3      5517            0.0000000000
     33900      5653  TIP3      H1              7.4892585232      -31.9533185431      -20.7683563509  TIP3      5517            0.0000000000
     33901      5653  TIP3      H2              6.0296898487      -31.8277298911      -20.6382000247  TIP3      5517            0.0000000000
     33902      5654  TIP3      OH2             8.0872048932      -16.2217306494      -23.4883365631  TIP3      5518            0.0000000000
     33903      5654  TIP3      H1              7.9865815166      -16.2191872987      -22.5245587163  TIP3      5518            0.0000000000
     33904      5654  TIP3      H2              9.0435043411      -16.4371371281      -23.5567280570  TIP3      5518            0.0000000000
     33905      5655  TIP3      OH2            30.1254037069      -29.2943674891      -22.9952724711  TIP3      5519            0.0000000000
     33906      5655  TIP3      H1             29.8270985751      -29.4812658443      -22.0775610340  TIP3      5519            0.0000000000
     33907      5655  TIP3      H2             29.4603429941      -28.6250071128      -23.2434472869  TIP3      5519            0.0000000000
     33908      5656  TIP3      OH2            29.0630090637      -26.5074305249      -22.0876461141  TIP3      5520            0.0000000000
     33909      5656  TIP3      H1             29.0860660549      -26.3254835769      -23.0346536302  TIP3      5520            0.0000000000
     33910      5656  TIP3      H2             29.9408828602      -26.8379487099      -21.8683368570  TIP3      5520            0.0000000000
     33911      5657  TIP3      OH2            32.1508082648      -19.4403118387      -23.5279990207  TIP3      5521            0.0000000000
     33912      5657  TIP3      H1             31.7292978152      -19.9104192149      -24.2686067439  TIP3      5521            0.0000000000
     33913      5657  TIP3      H2             31.6658851031      -19.8016390031      -22.7683081046  TIP3      5521            0.0000000000
     33914      5658  TIP3      OH2            30.6983870660      -19.8041554367      -20.9880768232  TIP3      5522            0.0000000000
     33915      5658  TIP3      H1             30.5766879399      -19.7625242571      -20.0301745563  TIP3      5522            0.0000000000
     33916      5658  TIP3      H2             30.7981626354      -18.8298639913      -21.1251803910  TIP3      5522            0.0000000000
     33917      5659  TIP3      OH2            30.1730400827      -17.1294265770      -21.1184151613  TIP3      5523            0.0000000000
     33918      5659  TIP3      H1             30.5315885345      -16.3422627270      -21.5686760137  TIP3      5523            0.0000000000
     33919      5659  TIP3      H2             30.0199118927      -16.7666911632      -20.2135068453  TIP3      5523            0.0000000000
     33920      5660  TIP3      OH2            28.5705084563      -29.3236463366      -20.8068199714  TIP3      5524            0.0000000000
     33921      5660  TIP3      H1             28.6051582369      -28.4848607372      -20.3059559358  TIP3      5524            0.0000000000
     33922      5660  TIP3      H2             29.2400422625      -29.8755667177      -20.3240115942  TIP3      5524            0.0000000000
     33923      5661  TIP3      OH2            31.9427297354      -25.4778109926      -22.8592321253  TIP3      5525            0.0000000000
     33924      5661  TIP3      H1             31.8265139083      -25.7169056685      -23.7959442353  TIP3      5525            0.0000000000
     33925      5661  TIP3      H2             31.9993744293      -26.3553702040      -22.4544358309  TIP3      5525            0.0000000000
     33926      5662  TIP3      OH2            30.9383105111      -15.0263686511      -22.8083091276  TIP3      5526            0.0000000000
     33927      5662  TIP3      H1             31.4699713098      -14.5801887773      -23.4809434985  TIP3      5526            0.0000000000
     33928      5662  TIP3      H2             30.2895422591      -14.3473152792      -22.5616536072  TIP3      5526            0.0000000000
     33929      5663  TIP3      OH2            27.0651742780      -30.7675819436      -22.4401281466  TIP3      5527            0.0000000000
     33930      5663  TIP3      H1             27.6980820391      -31.4918554284      -22.5969561622  TIP3      5527            0.0000000000
     33931      5663  TIP3      H2             27.5094339136      -30.2531198795      -21.7202545663  TIP3      5527            0.0000000000
     33932      5664  TIP3      OH2           -22.5398872673       -6.4251014260      -22.9305846498  TIP3      5528            0.0000000000
     33933      5664  TIP3      H1            -22.5495726305       -6.1643745802      -21.9818792960  TIP3      5528            0.0000000000
     33934      5664  TIP3      H2            -21.7470563128       -7.0075750283      -22.9087174762  TIP3      5528            0.0000000000
     33935      5665  TIP3      OH2           -19.6984639829        3.7379543130      -21.6498561086  TIP3      5529            0.0000000000
     33936      5665  TIP3      H1            -19.2674261112        2.9034976619      -21.4558213289  TIP3      5529            0.0000000000
     33937      5665  TIP3      H2            -19.8776363758        4.0504146667      -20.7250301032  TIP3      5529            0.0000000000
     33938      5666  TIP3      OH2           -18.8768651906       -4.4601333186      -22.2596650171  TIP3      5530            0.0000000000
     33939      5666  TIP3      H1            -18.9046938003       -4.3734263117      -23.2302059591  TIP3      5530            0.0000000000
     33940      5666  TIP3      H2            -18.5613081018       -5.3738051476      -22.1881760244  TIP3      5530            0.0000000000
     33941      5667  TIP3      OH2           -26.6317517128      -10.8106103718      -22.7992945713  TIP3      5531            0.0000000000
     33942      5667  TIP3      H1            -26.0369294671      -10.2306489546      -22.3129165987  TIP3      5531            0.0000000000
     33943      5667  TIP3      H2            -27.0031259607      -10.1683276761      -23.4602248395  TIP3      5531            0.0000000000
     33944      5668  TIP3      OH2           -20.7923101672      -10.1089422248      -21.6120993924  TIP3      5532            0.0000000000
     33945      5668  TIP3      H1            -21.3884375170      -10.7056526232      -21.0971826828  TIP3      5532            0.0000000000
     33946      5668  TIP3      H2            -20.1735417518       -9.8392218921      -20.9188352349  TIP3      5532            0.0000000000
     33947      5669  TIP3      OH2           -31.1784071816       -5.3370169969      -21.4844323833  TIP3      5533            0.0000000000
     33948      5669  TIP3      H1            -30.9129206761       -4.4349863157      -21.6912469081  TIP3      5533            0.0000000000
     33949      5669  TIP3      H2            -31.8191037540       -5.1321064207      -20.7622272276  TIP3      5533            0.0000000000
     33950      5670  TIP3      OH2           -14.9989686966        2.3142905676      -22.3880330483  TIP3      5534            0.0000000000
     33951      5670  TIP3      H1            -14.4597421539        2.8525325452      -22.9888987117  TIP3      5534            0.0000000000
     33952      5670  TIP3      H2            -15.3319597837        2.9855351016      -21.7839591516  TIP3      5534            0.0000000000
     33953      5671  TIP3      OH2           -24.3446700540       -0.4126804671      -23.6111282982  TIP3      5535            0.0000000000
     33954      5671  TIP3      H1            -24.8991035780       -0.8114999355      -24.3003805556  TIP3      5535            0.0000000000
     33955      5671  TIP3      H2            -24.8249442466       -0.6655344240      -22.7913924628  TIP3      5535            0.0000000000
     33956      5672  TIP3      OH2           -25.4593859561       -0.5293288550      -21.1752168476  TIP3      5536            0.0000000000
     33957      5672  TIP3      H1            -26.3685432014       -0.6468201461      -20.8538219336  TIP3      5536            0.0000000000
     33958      5672  TIP3      H2            -25.3572856170        0.4268566121      -21.0075377856  TIP3      5536            0.0000000000
     33959      5673  TIP3      OH2           -25.4128135613        2.3256732010      -20.4888796999  TIP3      5537            0.0000000000
     33960      5673  TIP3      H1            -26.0683488995        2.6330810691      -21.1288898562  TIP3      5537            0.0000000000
     33961      5673  TIP3      H2            -26.0128905391        1.9225990186      -19.8178068833  TIP3      5537            0.0000000000
     33962      5674  TIP3      OH2           -22.9505802153        1.8564591086      -23.4544727788  TIP3      5538            0.0000000000
     33963      5674  TIP3      H1            -23.4629077545        1.0140825657      -23.3990722905  TIP3      5538            0.0000000000
     33964      5674  TIP3      H2            -22.0794980519        1.5096217427      -23.7402271424  TIP3      5538            0.0000000000
     33965      5675  TIP3      OH2           -18.4026364600        1.0571991752      -23.7457364365  TIP3      5539            0.0000000000
     33966      5675  TIP3      H1            -17.8519280912        1.0615096424      -22.9566590080  TIP3      5539            0.0000000000
     33967      5675  TIP3      H2            -17.7386460210        1.2380238987      -24.4486644124  TIP3      5539            0.0000000000
     33968      5676  TIP3      OH2           -27.3241997146       -3.2033128658      -23.5472018082  TIP3      5540            0.0000000000
     33969      5676  TIP3      H1            -27.1205850894       -3.6945688970      -22.7259814243  TIP3      5540            0.0000000000
     33970      5676  TIP3      H2            -26.5162784454       -3.4254335576      -24.0498476414  TIP3      5540            0.0000000000
     33971      5677  TIP3      OH2           -21.8549961779       -1.5370354825      -23.6896746384  TIP3      5541            0.0000000000
     33972      5677  TIP3      H1            -22.8257005483       -1.4460369431      -23.6555400159  TIP3      5541            0.0000000000
     33973      5677  TIP3      H2            -21.7683520293       -2.5187833265      -23.7516792377  TIP3      5541            0.0000000000
     33974      5678  TIP3      OH2           -26.5582606859       -5.0014847738      -21.2632666504  TIP3      5542            0.0000000000
     33975      5678  TIP3      H1            -26.0241900008       -5.5273287086      -20.6364465750  TIP3      5542            0.0000000000
     33976      5678  TIP3      H2            -26.2171638094       -5.4401010280      -22.0744152521  TIP3      5542            0.0000000000
     33977      5679  TIP3      OH2           -25.5264964012       -6.2844327153      -23.2631966888  TIP3      5543            0.0000000000
     33978      5679  TIP3      H1            -25.6763229831       -6.4086520038      -24.2203100081  TIP3      5543            0.0000000000
     33979      5679  TIP3      H2            -24.5921751894       -6.5384360482      -23.1323849406  TIP3      5543            0.0000000000
     33980      5680  TIP3      OH2           -16.7132696597       -8.0548539664      -23.1840173861  TIP3      5544            0.0000000000
     33981      5680  TIP3      H1            -17.1299444593       -8.4563825835      -23.9797180254  TIP3      5544            0.0000000000
     33982      5680  TIP3      H2            -16.7392559471       -8.8212741084      -22.5823793178  TIP3      5544            0.0000000000
     33983      5681  TIP3      OH2           -16.9303890795      -10.9328394425      -22.8027246026  TIP3      5545            0.0000000000
     33984      5681  TIP3      H1            -16.2206225625      -11.2577485330      -22.1984430553  TIP3      5545            0.0000000000
     33985      5681  TIP3      H2            -17.6273152962      -11.5887137687      -22.5621174882  TIP3      5545            0.0000000000
     33986      5682  TIP3      OH2           -14.9917444382      -12.1141579188      -21.4506431896  TIP3      5546            0.0000000000
     33987      5682  TIP3      H1            -14.7703437646      -12.9644244943      -21.0452917469  TIP3      5546            0.0000000000
     33988      5682  TIP3      H2            -14.6332635635      -11.4918927489      -20.7762375710  TIP3      5546            0.0000000000
     33989      5683  TIP3      OH2           -28.7910319459      -12.2251524924      -21.9202193436  TIP3      5547            0.0000000000
     33990      5683  TIP3      H1            -28.8000055834      -13.0014081250      -22.5135903072  TIP3      5547            0.0000000000
     33991      5683  TIP3      H2            -28.0816488360      -11.7221585322      -22.3763477790  TIP3      5547            0.0000000000
     33992      5684  TIP3      OH2            -0.8020584797       -5.4058400541      -20.6387289217  TIP3      5548            0.0000000000
     33993      5684  TIP3      H1             -1.1018234642       -6.2697567219      -20.9926200527  TIP3      5548            0.0000000000
     33994      5684  TIP3      H2             -0.4270507517       -4.9564579965      -21.4111501519  TIP3      5548            0.0000000000
     33995      5685  TIP3      OH2            -0.8949769325        2.8245207897      -21.4050389477  TIP3      5549            0.0000000000
     33996      5685  TIP3      H1             -0.4563674699        2.5998506618      -22.2481956174  TIP3      5549            0.0000000000
     33997      5685  TIP3      H2             -1.8241474657        2.9303671863      -21.6643623807  TIP3      5549            0.0000000000
     33998      5686  TIP3      OH2             0.3191947529       -3.8222109447      -22.5749238929  TIP3      5550            0.0000000000
     33999      5686  TIP3      H1              0.1547376801       -4.0658926083      -23.5115179049  TIP3      5550            0.0000000000
     34000      5686  TIP3      H2              1.2950390430       -3.9907379363      -22.5790446606  TIP3      5550            0.0000000000
     34001      5687  TIP3      OH2            -7.6012487196      -10.1498211773      -22.0636876956  TIP3      5551            0.0000000000
     34002      5687  TIP3      H1             -8.4154684686      -10.6745717560      -22.0249279785  TIP3      5551            0.0000000000
     34003      5687  TIP3      H2             -7.5076696717       -9.9943693278      -23.0128619164  TIP3      5551            0.0000000000
     34004      5688  TIP3      OH2            -9.8409950995       -8.0005230754      -21.4472902579  TIP3      5552            0.0000000000
     34005      5688  TIP3      H1             -9.5112460968       -8.2773909952      -22.3313063441  TIP3      5552            0.0000000000
     34006      5688  TIP3      H2             -9.2676248624       -7.2340317527      -21.3176121240  TIP3      5552            0.0000000000
     34007      5689  TIP3      OH2            -2.8572854233       -0.9362429649      -21.6132305970  TIP3      5553            0.0000000000
     34008      5689  TIP3      H1             -2.9902067443       -0.0089642466      -21.3644270580  TIP3      5553            0.0000000000
     34009      5689  TIP3      H2             -3.3047118122       -1.3627956875      -20.8756405383  TIP3      5553            0.0000000000
     34010      5690  TIP3      OH2           -11.4261794312       -5.2882835124      -22.1846896697  TIP3      5554            0.0000000000
     34011      5690  TIP3      H1            -11.1123170568       -4.5080665276      -21.6870647987  TIP3      5554            0.0000000000
     34012      5690  TIP3      H2            -11.8824707007       -5.7841786172      -21.4885586596  TIP3      5554            0.0000000000
     34013      5691  TIP3      OH2             0.3920413606       -1.1420017474      -22.2449907449  TIP3      5555            0.0000000000
     34014      5691  TIP3      H1              0.3997317424       -2.1181395275      -22.3874675298  TIP3      5555            0.0000000000
     34015      5691  TIP3      H2             -0.5575078816       -1.0032183530      -22.0467852954  TIP3      5555            0.0000000000
     34016      5692  TIP3      OH2            -5.9308296817       -0.2027983320      -23.5057784644  TIP3      5556            0.0000000000
     34017      5692  TIP3      H1             -6.0522195697       -0.2518754964      -24.4623621380  TIP3      5556            0.0000000000
     34018      5692  TIP3      H2             -6.3822224033       -1.0201653305      -23.2687316115  TIP3      5556            0.0000000000
     34019      5693  TIP3      OH2            -7.9183073730       -1.1127530876      -20.7182999983  TIP3      5557            0.0000000000
     34020      5693  TIP3      H1             -6.9867289020       -1.1229431162      -20.4619001691  TIP3      5557            0.0000000000
     34021      5693  TIP3      H2             -7.8686393620       -1.3263248773      -21.6671260363  TIP3      5557            0.0000000000
     34022      5694  TIP3      OH2           -10.2459451672       -3.1661636700      -20.5600862154  TIP3      5558            0.0000000000
     34023      5694  TIP3      H1            -10.5744896470       -3.1330164973      -19.6442002628  TIP3      5558            0.0000000000
     34024      5694  TIP3      H2             -9.5003072176       -2.5478745747      -20.5223214147  TIP3      5558            0.0000000000
     34025      5695  TIP3      OH2           -12.2815745393       -8.3008053659      -22.9037608599  TIP3      5559            0.0000000000
     34026      5695  TIP3      H1            -11.5408750808       -8.2263605162      -22.2614250059  TIP3      5559            0.0000000000
     34027      5695  TIP3      H2            -13.0375553634       -8.0914147952      -22.3284329759  TIP3      5559            0.0000000000
     34028      5696  TIP3      OH2            -3.9401726072        1.9806755895      -23.6997047966  TIP3      5560            0.0000000000
     34029      5696  TIP3      H1             -4.4772355965        1.2272962500      -23.3769383141  TIP3      5560            0.0000000000
     34030      5696  TIP3      H2             -3.1885435727        1.5696189942      -24.1660996354  TIP3      5560            0.0000000000
     34031      5697  TIP3      OH2             0.6506417399        1.4526826497      -23.3659374608  TIP3      5561            0.0000000000
     34032      5697  TIP3      H1              0.7738078981        0.6272013206      -22.8583825516  TIP3      5561            0.0000000000
     34033      5697  TIP3      H2              1.4126521898        1.4680841759      -23.9720246721  TIP3      5561            0.0000000000
     34034      5698  TIP3      OH2            -8.1491479804       -2.4251311464      -23.1113890423  TIP3      5562            0.0000000000
     34035      5698  TIP3      H1             -8.6902462595       -3.1731820337      -22.8158992749  TIP3      5562            0.0000000000
     34036      5698  TIP3      H2             -7.6613333737       -2.7959255484      -23.8818508972  TIP3      5562            0.0000000000
     34037      5699  TIP3      OH2            -2.8817389754       -1.1975563796      -24.3768794855  TIP3      5563            0.0000000000
     34038      5699  TIP3      H1             -3.1888402862       -1.2117801618      -23.4506979280  TIP3      5563            0.0000000000
     34039      5699  TIP3      H2             -2.6438180610       -2.1468246850      -24.4632179018  TIP3      5563            0.0000000000
     34040      5700  TIP3      OH2             2.7777281603       -4.1575182608      -23.4348939263  TIP3      5564            0.0000000000
     34041      5700  TIP3      H1              2.9091604815       -4.6095331032      -24.2933460670  TIP3      5564            0.0000000000
     34042      5700  TIP3      H2              3.2181781236       -3.3010653936      -23.5871004564  TIP3      5564            0.0000000000
     34043      5701  TIP3      OH2            -6.8447351169        3.5697512400      -21.6200473843  TIP3      5565            0.0000000000
     34044      5701  TIP3      H1             -5.9109408971        3.4479061227      -21.3173542557  TIP3      5565            0.0000000000
     34045      5701  TIP3      H2             -6.7464138611        4.4079574161      -22.1270726854  TIP3      5565            0.0000000000
     34046      5702  TIP3      OH2             2.9132089404       -9.1574586579      -23.1170166547  TIP3      5566            0.0000000000
     34047      5702  TIP3      H1              3.2234266453       -8.2821059024      -23.3857998411  TIP3      5566            0.0000000000
     34048      5702  TIP3      H2              2.2243022522       -9.2965475067      -23.7856335232  TIP3      5566            0.0000000000
     34049      5703  TIP3      OH2             1.8273740415      -11.6620488388      -23.6994458391  TIP3      5567            0.0000000000
     34050      5703  TIP3      H1              2.0987610840      -11.2077704572      -22.8889109803  TIP3      5567            0.0000000000
     34051      5703  TIP3      H2              0.9153442955      -11.3226503171      -23.8530009180  TIP3      5567            0.0000000000
     34052      5704  TIP3      OH2            -9.8645901846      -11.8417107229      -21.6776241336  TIP3      5568            0.0000000000
     34053      5704  TIP3      H1             -9.9995486435      -12.1177965722      -22.6040271844  TIP3      5568            0.0000000000
     34054      5704  TIP3      H2             -9.7232908715      -12.7128103368      -21.2668796240  TIP3      5568            0.0000000000
     34055      5705  TIP3      OH2           -11.5858414963        2.4863547165      -23.3001278831  TIP3      5569            0.0000000000
     34056      5705  TIP3      H1            -11.2864111287        2.8444226632      -22.4622476323  TIP3      5569            0.0000000000
     34057      5705  TIP3      H2            -10.7116046155        2.2768820571      -23.7139103768  TIP3      5569            0.0000000000
     34058      5706  TIP3      OH2            15.5842349824       -5.6752211551      -22.3384283782  TIP3      5570            0.0000000000
     34059      5706  TIP3      H1             15.4637734892       -5.3335992731      -21.4326744759  TIP3      5570            0.0000000000
     34060      5706  TIP3      H2             15.6683585734       -6.6374968621      -22.2397626688  TIP3      5570            0.0000000000
     34061      5707  TIP3      OH2            23.3166679847        0.6205417916      -22.5768258415  TIP3      5571            0.0000000000
     34062      5707  TIP3      H1             23.0871334685        0.7428586482      -21.6147848137  TIP3      5571            0.0000000000
     34063      5707  TIP3      H2             24.2337807667        0.3521954724      -22.4239530825  TIP3      5571            0.0000000000
     34064      5708  TIP3      OH2            14.4313105359      -11.5145283151      -23.0807570569  TIP3      5572            0.0000000000
     34065      5708  TIP3      H1             14.0434115285      -12.1664805173      -22.4920618414  TIP3      5572            0.0000000000
     34066      5708  TIP3      H2             13.8839592686      -11.6959145253      -23.8660623237  TIP3      5572            0.0000000000
     34067      5709  TIP3      OH2             9.9094547916       -7.2596628704      -22.0618997652  TIP3      5573            0.0000000000
     34068      5709  TIP3      H1              9.7262397789       -7.9850258317      -22.6865557303  TIP3      5573            0.0000000000
     34069      5709  TIP3      H2             10.7052078239       -6.8795866512      -22.4620039688  TIP3      5573            0.0000000000
     34070      5710  TIP3      OH2            16.7998128035       -9.6296139003      -20.7023836783  TIP3      5574            0.0000000000
     34071      5710  TIP3      H1             16.4662617015      -10.2135466013      -21.4043756045  TIP3      5574            0.0000000000
     34072      5710  TIP3      H2             17.3576346635      -10.2415203042      -20.1875501582  TIP3      5574            0.0000000000
     34073      5711  TIP3      OH2             7.0254645349       -5.3567012570      -22.0886078805  TIP3      5575            0.0000000000
     34074      5711  TIP3      H1              7.5201791203       -6.1367007646      -21.7865806942  TIP3      5575            0.0000000000
     34075      5711  TIP3      H2              6.1681393434       -5.7668059447      -22.2531766334  TIP3      5575            0.0000000000
     34076      5712  TIP3      OH2            19.4502107864       -1.1176462131      -21.8211701805  TIP3      5576            0.0000000000
     34077      5712  TIP3      H1             19.7310909615       -1.1034384487      -20.8733123806  TIP3      5576            0.0000000000
     34078      5712  TIP3      H2             18.5382911033       -1.4296870328      -21.7251510376  TIP3      5576            0.0000000000
     34079      5713  TIP3      OH2            13.8307025457        1.2510642841      -21.3103185219  TIP3      5577            0.0000000000
     34080      5713  TIP3      H1             13.3443528256        2.1039086853      -21.4023433611  TIP3      5577            0.0000000000
     34081      5713  TIP3      H2             14.7137446283        1.6212177351      -21.0653023179  TIP3      5577            0.0000000000
     34082      5714  TIP3      OH2             6.9035005130       -8.3909368919      -22.7769365207  TIP3      5578            0.0000000000
     34083      5714  TIP3      H1              7.5628755348       -8.9101931478      -22.2800494339  TIP3      5578            0.0000000000
     34084      5714  TIP3      H2              6.1754746196       -9.0151435405      -22.8661372682  TIP3      5578            0.0000000000
     34085      5715  TIP3      OH2            14.5412142125        1.5633731495      -23.9656967543  TIP3      5579            0.0000000000
     34086      5715  TIP3      H1             14.3219814156        1.3274485740      -23.0386712738  TIP3      5579            0.0000000000
     34087      5715  TIP3      H2             15.5069444715        1.7105858322      -23.9117113358  TIP3      5579            0.0000000000
     34088      5716  TIP3      OH2            19.3965774770        1.0937751381      -23.4209774502  TIP3      5580            0.0000000000
     34089      5716  TIP3      H1             19.4116035682        0.2189930565      -22.9751587755  TIP3      5580            0.0000000000
     34090      5716  TIP3      H2             20.1091095954        1.0348467675      -24.0874485552  TIP3      5580            0.0000000000
     34091      5717  TIP3      OH2            15.8877628272       -1.2391052024      -24.1385822961  TIP3      5581            0.0000000000
     34092      5717  TIP3      H1             14.9555674001       -1.3388036388      -23.9055821325  TIP3      5581            0.0000000000
     34093      5717  TIP3      H2             16.1482979061       -2.1701482563      -24.2906833296  TIP3      5581            0.0000000000
     34094      5718  TIP3      OH2            12.6158496392       -6.6984163260      -23.0816167012  TIP3      5582            0.0000000000
     34095      5718  TIP3      H1             12.2119443972       -6.6369471132      -23.9676313282  TIP3      5582            0.0000000000
     34096      5718  TIP3      H2             13.4497548951       -6.2162837956      -23.2172912869  TIP3      5582            0.0000000000
     34097      5719  TIP3      OH2            22.0551443863       -4.4780294592      -23.5840975596  TIP3      5583            0.0000000000
     34098      5719  TIP3      H1             21.9355193388       -4.6200478458      -24.5472813899  TIP3      5583            0.0000000000
     34099      5719  TIP3      H2             21.8665711218       -3.5133391021      -23.5054465756  TIP3      5583            0.0000000000
     34100      5720  TIP3      OH2            12.8494881770        3.7731796008      -21.8913701140  TIP3      5584            0.0000000000
     34101      5720  TIP3      H1             13.1607283762        4.2597200333      -21.0947915805  TIP3      5584            0.0000000000
     34102      5720  TIP3      H2             12.8621972413        4.5182778605      -22.5217632863  TIP3      5584            0.0000000000
     34103      5721  TIP3      OH2             5.7673491662       -1.2452721561      -22.3871950497  TIP3      5585            0.0000000000
     34104      5721  TIP3      H1              6.6083259413       -1.2122570361      -22.8558499198  TIP3      5585            0.0000000000
     34105      5721  TIP3      H2              5.1833346330       -1.5210333077      -23.1188677631  TIP3      5585            0.0000000000
     34106      5722  TIP3      OH2            21.8996629581      -10.1486868271      -22.7542637234  TIP3      5586            0.0000000000
     34107      5722  TIP3      H1             22.4075295064      -10.6619411489      -22.0886764553  TIP3      5586            0.0000000000
     34108      5722  TIP3      H2             21.6910687426      -10.8485183565      -23.3887831120  TIP3      5586            0.0000000000
     34109      5723  TIP3      OH2            23.5943166052      -11.6410172803      -21.1894349468  TIP3      5587            0.0000000000
     34110      5723  TIP3      H1             24.0899457947      -12.4015789561      -21.5513750156  TIP3      5587            0.0000000000
     34111      5723  TIP3      H2             22.8226378631      -12.1087710530      -20.8262226989  TIP3      5587            0.0000000000
     34112      5724  TIP3      OH2             6.6138751397      -14.1209787130      -21.0361819655  TIP3      5588            0.0000000000
     34113      5724  TIP3      H1              7.1510695024      -13.4138389858      -20.6046952777  TIP3      5588            0.0000000000
     34114      5724  TIP3      H2              6.1244488951      -14.4063646943      -20.2330276340  TIP3      5588            0.0000000000
     34115      5725  TIP3      OH2             8.5213271642      -11.1586432094      -22.3840017671  TIP3      5589            0.0000000000
     34116      5725  TIP3      H1              9.0517089529      -11.8750053525      -22.7747232002  TIP3      5589            0.0000000000
     34117      5725  TIP3      H2              8.1820444437      -11.5954705752      -21.5671666650  TIP3      5589            0.0000000000
     34118      5726  TIP3      OH2            16.1086466014        2.7733826881      -20.8945207378  TIP3      5590            0.0000000000
     34119      5726  TIP3      H1             15.9811366498        3.0095713885      -19.9504723238  TIP3      5590            0.0000000000
     34120      5726  TIP3      H2             16.8976856727        3.3274327853      -21.0413367010  TIP3      5590            0.0000000000
     34121      5727  TIP3      OH2            30.4304547688       -9.6529190924      -22.6746788470  TIP3      5591            0.0000000000
     34122      5727  TIP3      H1             30.1367748464      -10.3762033882      -22.0695350099  TIP3      5591            0.0000000000
     34123      5727  TIP3      H2             29.7385605648       -9.6666573991      -23.3674052167  TIP3      5591            0.0000000000
     34124      5728  TIP3      OH2            28.4414548233       -7.5449141946      -22.0039469421  TIP3      5592            0.0000000000
     34125      5728  TIP3      H1             28.7467718693       -7.9578924134      -22.8348172177  TIP3      5592            0.0000000000
     34126      5728  TIP3      H2             29.1407617364       -6.8902446825      -21.8494943622  TIP3      5592            0.0000000000
     34127      5729  TIP3      OH2            25.3702907350       -4.8926576118      -21.3870385894  TIP3      5593            0.0000000000
     34128      5729  TIP3      H1             26.0438493944       -4.8260542380      -22.0833283320  TIP3      5593            0.0000000000
     34129      5729  TIP3      H2             25.0612130945       -3.9728313970      -21.3498947208  TIP3      5593            0.0000000000
     34130      5730  TIP3      OH2            31.6399661628       -0.8536043896      -23.1664137655  TIP3      5594            0.0000000000
     34131      5730  TIP3      H1             31.7957330688       -1.7929611105      -23.3399779034  TIP3      5594            0.0000000000
     34132      5730  TIP3      H2             30.8684501412       -0.8659377235      -22.5707562382  TIP3      5594            0.0000000000
     34133      5731  TIP3      OH2            30.4934589525        1.7295972202      -20.0982408340  TIP3      5595            0.0000000000
     34134      5731  TIP3      H1             29.9789811622        1.8666293419      -20.9114221557  TIP3      5595            0.0000000000
     34135      5731  TIP3      H2             29.8241949938        1.2651767966      -19.5647703072  TIP3      5595            0.0000000000
     34136      5732  TIP3      OH2            29.8266310400      -11.7103018420      -21.0151199338  TIP3      5596            0.0000000000
     34137      5732  TIP3      H1             29.8045815703      -11.4624623029      -20.0691326023  TIP3      5596            0.0000000000
     34138      5732  TIP3      H2             29.2748664393      -12.5215097155      -21.0263878572  TIP3      5596            0.0000000000
     34139      5733  TIP3      OH2            25.9686043183       -8.5878026059      -21.6331035384  TIP3      5597            0.0000000000
     34140      5733  TIP3      H1             26.7342151709       -7.9837447184      -21.5015364820  TIP3      5597            0.0000000000
     34141      5733  TIP3      H2             26.2804524994       -9.0100825658      -22.4533642864  TIP3      5597            0.0000000000
     34142      5734  TIP3      OH2            28.7777498982       -4.0844523533      -24.2835205260  TIP3      5598            0.0000000000
     34143      5734  TIP3      H1             29.0335642265       -3.6716725374      -23.4397535430  TIP3      5598            0.0000000000
     34144      5734  TIP3      H2             29.6289579480       -4.1223604280      -24.7558957283  TIP3      5598            0.0000000000
     34145      5735  TIP3      OH2            30.9166881136       -6.3166168246      -23.4076241558  TIP3      5599            0.0000000000
     34146      5735  TIP3      H1             30.5454408661       -6.9493884901      -24.0374992563  TIP3      5599            0.0000000000
     34147      5735  TIP3      H2             31.3592534262       -5.7060425210      -24.0327680374  TIP3      5599            0.0000000000
     34148      5736  TIP3      OH2            31.3955094809        4.5665534073      -22.3691360400  TIP3      5600            0.0000000000
     34149      5736  TIP3      H1             31.7212099207        4.1837499506      -23.1943878384  TIP3      5600            0.0000000000
     34150      5736  TIP3      H2             31.0727247229        3.7752324257      -21.9131523786  TIP3      5600            0.0000000000
     34151      5737  TIP3      OH2            26.4639333091        2.3446934427      -23.1687487972  TIP3      5601            0.0000000000
     34152      5737  TIP3      H1             26.3330071407        2.3183861680      -22.2070505980  TIP3      5601            0.0000000000
     34153      5737  TIP3      H2             27.4271929739        2.1799945013      -23.2083618872  TIP3      5601            0.0000000000
     34154      5738  TIP3      OH2           -18.0514433708       13.8383090493      -22.4292963891  TIP3      5602            0.0000000000
     34155      5738  TIP3      H1            -18.3355092963       13.9843613360      -23.3478060700  TIP3      5602            0.0000000000
     34156      5738  TIP3      H2            -17.1718126990       14.2638740026      -22.4484616816  TIP3      5602            0.0000000000
     34157      5739  TIP3      OH2           -25.8627638881        7.9166851569      -22.5910229984  TIP3      5603            0.0000000000
     34158      5739  TIP3      H1            -26.2578304728        7.4875711880      -21.8091298819  TIP3      5603            0.0000000000
     34159      5739  TIP3      H2            -26.6479110209        8.2339899824      -23.0519980405  TIP3      5603            0.0000000000
     34160      5740  TIP3      OH2           -18.5616759478       17.2933184403      -21.6784069011  TIP3      5604            0.0000000000
     34161      5740  TIP3      H1            -18.5005365127       16.8421233993      -20.8087761992  TIP3      5604            0.0000000000
     34162      5740  TIP3      H2            -19.5349280741       17.3008075138      -21.7503910345  TIP3      5604            0.0000000000
     34163      5741  TIP3      OH2           -24.9286253618       18.3256290957      -23.4967077798  TIP3      5605            0.0000000000
     34164      5741  TIP3      H1            -25.2538921730       17.9847012686      -24.3458337095  TIP3      5605            0.0000000000
     34165      5741  TIP3      H2            -25.4085903359       17.8006466805      -22.8383055315  TIP3      5605            0.0000000000
     34166      5742  TIP3      OH2           -25.9013755674       20.8199406454      -20.8102335359  TIP3      5606            0.0000000000
     34167      5742  TIP3      H1            -25.5911399545       21.7184218057      -21.0744534835  TIP3      5606            0.0000000000
     34168      5742  TIP3      H2            -25.1291281848       20.5233997494      -20.2991828640  TIP3      5606            0.0000000000
     34169      5743  TIP3      OH2           -22.8559676162       20.8693230732      -23.4683901820  TIP3      5607            0.0000000000
     34170      5743  TIP3      H1            -23.2235520518       20.0014174623      -23.2257148416  TIP3      5607            0.0000000000
     34171      5743  TIP3      H2            -21.9869632614       20.6254631046      -23.8446718887  TIP3      5607            0.0000000000
     34172      5744  TIP3      OH2           -18.3984605344       19.7666872457      -23.2979682275  TIP3      5608            0.0000000000
     34173      5744  TIP3      H1            -18.1709041437       19.0050981476      -22.7313673023  TIP3      5608            0.0000000000
     34174      5744  TIP3      H2            -17.6251448581       19.8829815432      -23.8893694716  TIP3      5608            0.0000000000
     34175      5745  TIP3      OH2           -27.6750326725       15.7659310439      -23.8981706070  TIP3      5609            0.0000000000
     34176      5745  TIP3      H1            -27.4788465301       15.7573754032      -22.9446647067  TIP3      5609            0.0000000000
     34177      5745  TIP3      H2            -26.7991192254       15.6184560637      -24.3204013598  TIP3      5609            0.0000000000
     34178      5746  TIP3      OH2           -22.3526613771       17.6990636330      -24.0425690665  TIP3      5610            0.0000000000
     34179      5746  TIP3      H1            -23.2407497842       17.7833149033      -23.6354440759  TIP3      5610            0.0000000000
     34180      5746  TIP3      H2            -22.1881505987       16.7301601804      -23.9686542453  TIP3      5610            0.0000000000
     34181      5747  TIP3      OH2           -25.7391479416       12.8776691307      -22.9103575911  TIP3      5611            0.0000000000
     34182      5747  TIP3      H1            -25.7994770082       13.1059888679      -23.8520324550  TIP3      5611            0.0000000000
     34183      5747  TIP3      H2            -25.3361073766       12.0034687252      -22.8813712185  TIP3      5611            0.0000000000
     34184      5748  TIP3      OH2           -15.6613169408       14.5787838097      -23.2801377313  TIP3      5612            0.0000000000
     34185      5748  TIP3      H1            -15.7039941582       14.1549656637      -24.1551805254  TIP3      5612            0.0000000000
     34186      5748  TIP3      H2            -15.2910523834       15.4447517189      -23.5256500607  TIP3      5612            0.0000000000
     34187      5749  TIP3      OH2           -24.6130669030       23.0257320320      -21.4760165531  TIP3      5613            0.0000000000
     34188      5749  TIP3      H1            -23.7029316017       22.7212083441      -21.3900955617  TIP3      5613            0.0000000000
     34189      5749  TIP3      H2            -24.5742447814       23.4854403295      -22.3469509817  TIP3      5613            0.0000000000
     34190      5750  TIP3      OH2           -15.1091320581       12.8508659961      -20.6739477446  TIP3      5614            0.0000000000
     34191      5750  TIP3      H1            -15.5002076932       13.0949376847      -21.5296724459  TIP3      5614            0.0000000000
     34192      5750  TIP3      H2            -14.8012840641       13.6926211698      -20.3212954028  TIP3      5614            0.0000000000
     34193      5751  TIP3      OH2           -30.2048591057        5.8996225972      -21.1782789122  TIP3      5615            0.0000000000
     34194      5751  TIP3      H1            -29.4562989706        5.5487258166      -21.6760949018  TIP3      5615            0.0000000000
     34195      5751  TIP3      H2            -29.7373613334        6.2328837270      -20.3969725317  TIP3      5615            0.0000000000
     34196      5752  TIP3      OH2            -3.4880923150       12.3621178635      -23.0306435193  TIP3      5616            0.0000000000
     34197      5752  TIP3      H1             -3.7541647396       12.5764516791      -22.1244604035  TIP3      5616            0.0000000000
     34198      5752  TIP3      H2             -2.8483449454       11.6233617051      -22.9563319266  TIP3      5616            0.0000000000
     34199      5753  TIP3      OH2             3.5047256607       19.6938841364      -22.5046781413  TIP3      5617            0.0000000000
     34200      5753  TIP3      H1              3.5691656392       20.5605708919      -22.0445704015  TIP3      5617            0.0000000000
     34201      5753  TIP3      H2              4.3683915640       19.2950764934      -22.2887846127  TIP3      5617            0.0000000000
     34202      5754  TIP3      OH2             0.6537848579       14.0374699133      -22.3903317778  TIP3      5618            0.0000000000
     34203      5754  TIP3      H1              0.4501913044       13.7564963300      -23.2996722107  TIP3      5618            0.0000000000
     34204      5754  TIP3      H2              1.5696089648       14.3733641895      -22.4916381335  TIP3      5618            0.0000000000
     34205      5755  TIP3      OH2            -3.4255132261        8.2115692089      -22.1606376509  TIP3      5619            0.0000000000
     34206      5755  TIP3      H1             -4.3785509569        8.1466233773      -22.3055066030  TIP3      5619            0.0000000000
     34207      5755  TIP3      H2             -3.0679312376        7.5714170597      -22.7929499725  TIP3      5619            0.0000000000
     34208      5756  TIP3      OH2            -7.2088127196        8.3235897356      -22.6902120275  TIP3      5620            0.0000000000
     34209      5756  TIP3      H1             -7.8689842702        8.2719275731      -21.9772603556  TIP3      5620            0.0000000000
     34210      5756  TIP3      H2             -7.7693782972        8.6753514286      -23.4267945052  TIP3      5620            0.0000000000
     34211      5757  TIP3      OH2           -11.5598374675       13.9719612606      -22.7038615060  TIP3      5621            0.0000000000
     34212      5757  TIP3      H1            -10.7630071346       14.2131022063      -22.1881923142  TIP3      5621            0.0000000000
     34213      5757  TIP3      H2            -11.6892093464       13.0559789706      -22.4108989292  TIP3      5621            0.0000000000
     34214      5758  TIP3      OH2             4.1340216993       22.3067630986      -21.5711575723  TIP3      5622            0.0000000000
     34215      5758  TIP3      H1              5.0059201820       22.7262008709      -21.6646618215  TIP3      5622            0.0000000000
     34216      5758  TIP3      H2              3.5130501860       22.9662672469      -21.9133362925  TIP3      5622            0.0000000000
     34217      5759  TIP3      OH2            -5.9022644259       19.1458631111      -23.4545347765  TIP3      5623            0.0000000000
     34218      5759  TIP3      H1             -5.8670672666       18.5133613809      -24.1922326147  TIP3      5623            0.0000000000
     34219      5759  TIP3      H2             -5.9597642613       18.5096526063      -22.7151798758  TIP3      5623            0.0000000000
     34220      5760  TIP3      OH2            -7.7990874203       18.2127361794      -19.7672982825  TIP3      5624            0.0000000000
     34221      5760  TIP3      H1             -7.2985073697       17.9230584290      -18.9713105161  TIP3      5624            0.0000000000
     34222      5760  TIP3      H2             -8.1564778397       19.0341770134      -19.3727925270  TIP3      5624            0.0000000000
     34223      5761  TIP3      OH2            -9.0005244255        7.0804475772      -20.2296092777  TIP3      5625            0.0000000000
     34224      5761  TIP3      H1             -9.6488933354        7.3962387415      -19.5452977610  TIP3      5625            0.0000000000
     34225      5761  TIP3      H2             -8.2539815109        6.8605838810      -19.6645671274  TIP3      5625            0.0000000000
     34226      5762  TIP3      OH2           -11.2923010601       10.9196272248      -22.8513547004  TIP3      5626            0.0000000000
     34227      5762  TIP3      H1            -10.5465717328       11.4114383296      -22.4502464390  TIP3      5626            0.0000000000
     34228      5762  TIP3      H2            -11.2111744704       10.0871307827      -22.3662097194  TIP3      5626            0.0000000000
     34229      5763  TIP3      OH2             0.3978962150       19.9392050113      -23.5058366714  TIP3      5627            0.0000000000
     34230      5763  TIP3      H1              0.6998593657       19.5275662627      -22.6839111931  TIP3      5627            0.0000000000
     34231      5763  TIP3      H2              1.2372122156       20.0558717365      -23.9952209485  TIP3      5627            0.0000000000
     34232      5764  TIP3      OH2            -8.1608392375       15.9195802547      -23.3540227444  TIP3      5628            0.0000000000
     34233      5764  TIP3      H1             -7.8777618525       15.1526916448      -22.8080783596  TIP3      5628            0.0000000000
     34234      5764  TIP3      H2             -7.3476688630       15.9657145496      -23.8979486935  TIP3      5628            0.0000000000
     34235      5765  TIP3      OH2            -2.3431500467       17.1975096452      -23.5910774727  TIP3      5629            0.0000000000
     34236      5765  TIP3      H1             -2.2918159347       17.2423350033      -22.5989271046  TIP3      5629            0.0000000000
     34237      5765  TIP3      H2             -2.7933966387       16.3466235642      -23.7313731552  TIP3      5629            0.0000000000
     34238      5766  TIP3      OH2             3.2788339672       14.6992556602      -23.0263250085  TIP3      5630            0.0000000000
     34239      5766  TIP3      H1              3.1515020818       14.2921910448      -23.8900802155  TIP3      5630            0.0000000000
     34240      5766  TIP3      H2              3.1927588104       15.6608568230      -23.2267340773  TIP3      5630            0.0000000000
     34241      5767  TIP3      OH2             2.3612276253       11.0296567849      -23.0632781357  TIP3      5631            0.0000000000
     34242      5767  TIP3      H1              2.6440767745       10.4937360286      -23.8081942481  TIP3      5631            0.0000000000
     34243      5767  TIP3      H2              2.2354112229       10.3669289212      -22.3623698386  TIP3      5631            0.0000000000
     34244      5768  TIP3      OH2           -10.7232588783        7.9588690804      -22.2425605063  TIP3      5632            0.0000000000
     34245      5768  TIP3      H1            -10.2696506756        7.3354426831      -22.8429625687  TIP3      5632            0.0000000000
     34246      5768  TIP3      H2            -10.2960524126        7.7496116655      -21.3868671952  TIP3      5632            0.0000000000
     34247      5769  TIP3      OH2           -11.1669858582       21.5670694634      -22.8918937709  TIP3      5633            0.0000000000
     34248      5769  TIP3      H1            -10.4390165700       21.6413216950      -22.2563897077  TIP3      5633            0.0000000000
     34249      5769  TIP3      H2            -10.8811528107       20.7789511458      -23.4071946049  TIP3      5633            0.0000000000
     34250      5770  TIP3      OH2            15.4341261795       12.4033631598      -22.8283554558  TIP3      5634            0.0000000000
     34251      5770  TIP3      H1             16.2475563194       12.2736180949      -22.3283293903  TIP3      5634            0.0000000000
     34252      5770  TIP3      H2             15.3128555099       11.4824173401      -23.1339732955  TIP3      5634            0.0000000000
     34253      5771  TIP3      OH2            19.2357513051       14.3564361138      -22.4279966125  TIP3      5635            0.0000000000
     34254      5771  TIP3      H1             19.0080636400       14.2112140520      -23.3625674108  TIP3      5635            0.0000000000
     34255      5771  TIP3      H2             20.2081809955       14.4526410284      -22.5715207521  TIP3      5635            0.0000000000
     34256      5772  TIP3      OH2            11.1557570760        8.2578672264      -22.7280824382  TIP3      5636            0.0000000000
     34257      5772  TIP3      H1             10.3037939828        7.9022127898      -22.3926690097  TIP3      5636            0.0000000000
     34258      5772  TIP3      H2             10.8349933068        8.8469143220      -23.4513305951  TIP3      5636            0.0000000000
     34259      5773  TIP3      OH2             9.8145073277       11.1514715067      -21.9889144042  TIP3      5637            0.0000000000
     34260      5773  TIP3      H1              9.5411303869       10.2306329513      -21.8854072420  TIP3      5637            0.0000000000
     34261      5773  TIP3      H2             10.3776129874       11.1139211742      -22.7778367464  TIP3      5637            0.0000000000
     34262      5774  TIP3      OH2            18.9718799589       17.2314323477      -21.9387183440  TIP3      5638            0.0000000000
     34263      5774  TIP3      H1             18.3788328581       17.1809155181      -21.1556283510  TIP3      5638            0.0000000000
     34264      5774  TIP3      H2             18.6838122115       16.4174951359      -22.3866703619  TIP3      5638            0.0000000000
     34265      5775  TIP3      OH2            13.3107303957       18.1043231669      -23.7233669046  TIP3      5639            0.0000000000
     34266      5775  TIP3      H1             12.5763633443       18.1645964410      -24.3535865746  TIP3      5639            0.0000000000
     34267      5775  TIP3      H2             12.8405029217       17.9575560699      -22.8850696510  TIP3      5639            0.0000000000
     34268      5776  TIP3      OH2            11.9250680491       17.8893509226      -21.0041270521  TIP3      5640            0.0000000000
     34269      5776  TIP3      H1             11.0303977013       17.9949035552      -21.3440629546  TIP3      5640            0.0000000000
     34270      5776  TIP3      H2             12.1286833368       18.7931772756      -20.7241627563  TIP3      5640            0.0000000000
     34271      5777  TIP3      OH2            14.7211140038       20.4939241718      -23.5832919503  TIP3      5641            0.0000000000
     34272      5777  TIP3      H1             14.4777121016       19.6499087511      -23.1577069746  TIP3      5641            0.0000000000
     34273      5777  TIP3      H2             15.5366457218       20.2301284256      -24.0513382120  TIP3      5641            0.0000000000
     34274      5778  TIP3      OH2            19.3614640746       19.8036689310      -23.5281033484  TIP3      5642            0.0000000000
     34275      5778  TIP3      H1             19.3813438201       18.9280279843      -23.0880338900  TIP3      5642            0.0000000000
     34276      5778  TIP3      H2             20.0624519779       19.6857537692      -24.2112298923  TIP3      5642            0.0000000000
     34277      5779  TIP3      OH2            10.5274874914       15.7364608612      -23.5648974449  TIP3      5643            0.0000000000
     34278      5779  TIP3      H1             10.2995564736       14.8120800080      -23.7360909443  TIP3      5643            0.0000000000
     34279      5779  TIP3      H2             11.3779738384       15.7930998993      -24.0609610401  TIP3      5643            0.0000000000
     34280      5780  TIP3      OH2            15.9000973172       17.2541859272      -23.8529184727  TIP3      5644            0.0000000000
     34281      5780  TIP3      H1             14.9181086172       17.2979195070      -23.8457280159  TIP3      5644            0.0000000000
     34282      5780  TIP3      H2             16.0478048926       16.2852972829      -23.9875681575  TIP3      5644            0.0000000000
     34283      5781  TIP3      OH2            21.7244795083       14.7749951670      -23.4063147690  TIP3      5645            0.0000000000
     34284      5781  TIP3      H1             21.6883286838       14.5864837145      -24.3612667901  TIP3      5645            0.0000000000
     34285      5781  TIP3      H2             21.9027885707       15.7432015698      -23.4166550906  TIP3      5645            0.0000000000
     34286      5782  TIP3      OH2            13.1432452388       23.3513766646      -21.5731616579  TIP3      5646            0.0000000000
     34287      5782  TIP3      H1             14.1133248048       23.2162471421      -21.5541579237  TIP3      5646            0.0000000000
     34288      5782  TIP3      H2             12.7786710767       22.4631024592      -21.6128099495  TIP3      5646            0.0000000000
     34289      5783  TIP3      OH2             5.7987164015       17.6735529684      -22.4889248160  TIP3      5647            0.0000000000
     34290      5783  TIP3      H1              6.5842870202       18.1120058163      -22.8498769957  TIP3      5647            0.0000000000
     34291      5783  TIP3      H2              5.4769775449       17.1852145213      -23.2629415712  TIP3      5647            0.0000000000
     34292      5784  TIP3      OH2            23.2449990180       14.0512742266      -21.1105449806  TIP3      5648            0.0000000000
     34293      5784  TIP3      H1             22.7677144889       14.2120930307      -21.9458466236  TIP3      5648            0.0000000000
     34294      5784  TIP3      H2             23.1959487320       14.9318038646      -20.6882167770  TIP3      5648            0.0000000000
     34295      5785  TIP3      OH2            20.7580078628        7.2244245305      -24.2119150947  TIP3      5649            0.0000000000
     34296      5785  TIP3      H1             20.4642931951        7.5503040852      -23.3420958172  TIP3      5649            0.0000000000
     34297      5785  TIP3      H2             20.0846363012        7.6011105418      -24.8057454395  TIP3      5649            0.0000000000
     34298      5786  TIP3      OH2            22.9555383590        6.5388750615      -21.6629896934  TIP3      5650            0.0000000000
     34299      5786  TIP3      H1             23.2265754050        5.8283798585      -22.2845596393  TIP3      5650            0.0000000000
     34300      5786  TIP3      H2             23.7724123273        6.6762221021      -21.1524283622  TIP3      5650            0.0000000000
     34301      5787  TIP3      OH2             8.8953617428        7.2314887733      -21.8623491085  TIP3      5651            0.0000000000
     34302      5787  TIP3      H1              9.0301586421        6.2656155399      -21.9707176448  TIP3      5651            0.0000000000
     34303      5787  TIP3      H2              8.8524272119        7.3066892164      -20.8810388670  TIP3      5651            0.0000000000
     34304      5788  TIP3      OH2            30.4654808094        7.0407467628      -22.8772520040  TIP3      5652            0.0000000000
     34305      5788  TIP3      H1             29.7139149736        6.8536735591      -22.2914483242  TIP3      5652            0.0000000000
     34306      5788  TIP3      H2             30.8800222552        6.1519766736      -22.7761991609  TIP3      5652            0.0000000000
     34307      5789  TIP3      OH2            29.4213527921       10.9710217111      -21.7579641911  TIP3      5653            0.0000000000
     34308      5789  TIP3      H1             28.4898178348       11.2284485518      -21.5314843530  TIP3      5653            0.0000000000
     34309      5789  TIP3      H2             29.8075675460       11.7855104747      -22.1427532866  TIP3      5653            0.0000000000
     34310      5790  TIP3      OH2            25.7420282840       13.6616897149      -21.9562338484  TIP3      5654            0.0000000000
     34311      5790  TIP3      H1             25.9922481371       14.4642032046      -21.4529549464  TIP3      5654            0.0000000000
     34312      5790  TIP3      H2             24.7735658571       13.6451703148      -21.7581339820  TIP3      5654            0.0000000000
     34313      5791  TIP3      OH2            31.4811340896       18.3658328593      -23.2425263417  TIP3      5655            0.0000000000
     34314      5791  TIP3      H1             31.5739983926       18.2581611631      -24.1990802718  TIP3      5655            0.0000000000
     34315      5791  TIP3      H2             31.0305684896       17.5498185555      -22.9942871455  TIP3      5655            0.0000000000
     34316      5792  TIP3      OH2            26.5104748629       16.1134820509      -20.7482689895  TIP3      5656            0.0000000000
     34317      5792  TIP3      H1             25.6507588402       16.5380065545      -20.5742471069  TIP3      5656            0.0000000000
     34318      5792  TIP3      H2             27.1046656698       16.5794946767      -20.1378668196  TIP3      5656            0.0000000000
     34319      5793  TIP3      OH2            26.7070780619       11.2169188713      -21.6176338093  TIP3      5657            0.0000000000
     34320      5793  TIP3      H1             26.2355104180       12.0835124548      -21.5850407526  TIP3      5657            0.0000000000
     34321      5793  TIP3      H2             26.1887041195       10.6758422683      -20.9961631343  TIP3      5657            0.0000000000
     34322      5794  TIP3      OH2            28.7515710177       16.2489396041      -23.3320730918  TIP3      5658            0.0000000000
     34323      5794  TIP3      H1             28.5143052157       15.7078666605      -22.5675162680  TIP3      5658            0.0000000000
     34324      5794  TIP3      H2             29.5096574944       15.7847223521      -23.7191791288  TIP3      5658            0.0000000000
     34325      5795  TIP3      OH2            31.1533614433       12.5569519642      -23.1665263123  TIP3      5659            0.0000000000
     34326      5795  TIP3      H1             31.0526934849       12.8723866077      -24.0855775951  TIP3      5659            0.0000000000
     34327      5795  TIP3      H2             31.6662346740       11.7406964224      -23.3287231205  TIP3      5659            0.0000000000
     34328      5796  TIP3      OH2            26.3045121226       21.5429039584      -23.0430486286  TIP3      5660            0.0000000000
     34329      5796  TIP3      H1             25.8305962424       20.8016132543      -22.6403466002  TIP3      5660            0.0000000000
     34330      5796  TIP3      H2             27.2299785284       21.2496765517      -23.0123357980  TIP3      5660            0.0000000000
     34331      5797  TIP3      OH2           -22.2583583943       30.7037652816      -21.9727073845  TIP3      5661            0.0000000000
     34332      5797  TIP3      H1            -22.4012179271       30.3921127115      -21.0587239180  TIP3      5661            0.0000000000
     34333      5797  TIP3      H2            -21.3954166738       30.3037652741      -22.1711195354  TIP3      5661            0.0000000000
     34334      5798  TIP3      OH2           -23.0456638067       26.5496306801      -21.5619511091  TIP3      5662            0.0000000000
     34335      5798  TIP3      H1            -23.4513810569       26.9837763603      -20.7870811894  TIP3      5662            0.0000000000
     34336      5798  TIP3      H2            -23.7833387866       26.0089117072      -21.8967041324  TIP3      5662            0.0000000000
     34337      5799  TIP3      OH2           -25.7429787640       26.8517214650      -22.8952331409  TIP3      5663            0.0000000000
     34338      5799  TIP3      H1            -25.8934244524       27.2155728555      -22.0068984669  TIP3      5663            0.0000000000
     34339      5799  TIP3      H2            -26.4717551042       27.2778137242      -23.3981769227  TIP3      5663            0.0000000000
     34340      5800  TIP3      OH2           -27.7968545124       29.3971287887      -21.7989055411  TIP3      5664            0.0000000000
     34341      5800  TIP3      H1            -27.7059354995       29.0988766828      -22.7280804247  TIP3      5664            0.0000000000
     34342      5800  TIP3      H2            -26.8834467340       29.6848141005      -21.6174244712  TIP3      5664            0.0000000000
     34343      5801  TIP3      OH2           -20.3723581559       27.1411910504      -21.5477839884  TIP3      5665            0.0000000000
     34344      5801  TIP3      H1            -21.3357447137       26.9280803823      -21.4511680122  TIP3      5665            0.0000000000
     34345      5801  TIP3      H2            -20.3756311887       27.9647485039      -21.0264391536  TIP3      5665            0.0000000000
     34346      5802  TIP3      OH2           -30.8510129670       32.4327454280      -21.3332236957  TIP3      5666            0.0000000000
     34347      5802  TIP3      H1            -30.5464060904       32.9498781232      -20.5418267376  TIP3      5666            0.0000000000
     34348      5802  TIP3      H2            -31.2037260535       33.1485098266      -21.8705004052  TIP3      5666            0.0000000000
     34349      5803  TIP3      OH2           -31.1233622585       29.6904536093      -22.8896082669  TIP3      5667            0.0000000000
     34350      5803  TIP3      H1            -30.8297314568       30.3900867931      -22.2765947274  TIP3      5667            0.0000000000
     34351      5803  TIP3      H2            -32.0907754336       29.7538751444      -22.8262750979  TIP3      5667            0.0000000000
     34352      5804  TIP3      OH2           -27.5447965805       32.4162993292      -22.0694230139  TIP3      5668            0.0000000000
     34353      5804  TIP3      H1            -28.0791311106       32.1079614762      -21.3185433778  TIP3      5668            0.0000000000
     34354      5804  TIP3      H2            -26.8807253556       31.7114843260      -22.1615202468  TIP3      5668            0.0000000000
     34355      5805  TIP3      OH2           -25.3265295163       30.3934626918      -22.4713869270  TIP3      5669            0.0000000000
     34356      5805  TIP3      H1            -25.4689396114       30.5647366279      -23.4229164043  TIP3      5669            0.0000000000
     34357      5805  TIP3      H2            -24.3789280963       30.6167945121      -22.3958693069  TIP3      5669            0.0000000000
     34358      5806  TIP3      OH2           -14.5110103628       31.4826676729      -21.7637053127  TIP3      5670            0.0000000000
     34359      5806  TIP3      H1            -15.0868277525       30.8055379945      -22.1727528593  TIP3      5670            0.0000000000
     34360      5806  TIP3      H2            -14.0669857556       30.9726942151      -21.0714351407  TIP3      5670            0.0000000000
     34361      5807  TIP3      OH2           -16.4655062870       29.8499422449      -23.0839160407  TIP3      5671            0.0000000000
     34362      5807  TIP3      H1            -15.8841409153       29.9731377963      -23.8479700674  TIP3      5671            0.0000000000
     34363      5807  TIP3      H2            -17.0225129928       29.1219138629      -23.4112040095  TIP3      5671            0.0000000000
     34364      5808  TIP3      OH2           -17.2775053886       26.8448023353      -23.0447115991  TIP3      5672            0.0000000000
     34365      5808  TIP3      H1            -16.4725701877       26.4741982587      -22.5919746288  TIP3      5672            0.0000000000
     34366      5808  TIP3      H2            -17.8821675320       26.9135487167      -22.3003052488  TIP3      5672            0.0000000000
     34367      5809  TIP3      OH2            -0.2670225587       30.9257489832      -20.8812163862  TIP3      5673            0.0000000000
     34368      5809  TIP3      H1             -0.5808912696       31.3661695943      -20.0797423798  TIP3      5673            0.0000000000
     34369      5809  TIP3      H2             -0.1029057079       31.6647602109      -21.5000239864  TIP3      5673            0.0000000000
     34370      5810  TIP3      OH2             0.1912868345      -33.4198671574      -22.7134869832  TIP3      5674            0.0000000000
     34371      5810  TIP3      H1              0.8352572634      -33.6590680082      -23.4061816612  TIP3      5674            0.0000000000
     34372      5810  TIP3      H2              0.4851095504      -32.4851585347      -22.6124766952  TIP3      5674            0.0000000000
     34373      5811  TIP3      OH2            -7.8475755204       26.9407217260      -22.6296134543  TIP3      5675            0.0000000000
     34374      5811  TIP3      H1             -8.2548488362       26.1753061378      -23.0539859664  TIP3      5675            0.0000000000
     34375      5811  TIP3      H2             -8.0612392335       27.6421148852      -23.2790277101  TIP3      5675            0.0000000000
     34376      5812  TIP3      OH2            -8.6498293117       30.2103420001      -21.9248882753  TIP3      5676            0.0000000000
     34377      5812  TIP3      H1             -8.6482568647       29.7533031158      -22.7892631803  TIP3      5676            0.0000000000
     34378      5812  TIP3      H2             -7.8005172166       30.6841188418      -22.0254084188  TIP3      5676            0.0000000000
     34379      5813  TIP3      OH2           -11.4582312799       32.3470137393      -21.6232133730  TIP3      5677            0.0000000000
     34380      5813  TIP3      H1            -10.6925890542       31.8272231704      -21.3096884348  TIP3      5677            0.0000000000
     34381      5813  TIP3      H2            -12.0527479114       31.6374531300      -21.9160552440  TIP3      5677            0.0000000000
     34382      5814  TIP3      OH2           -11.9489058004       29.6027492392      -23.0088098209  TIP3      5678            0.0000000000
     34383      5814  TIP3      H1            -11.2215095603       28.9606970745      -22.9689591378  TIP3      5678            0.0000000000
     34384      5814  TIP3      H2            -12.7168600801       29.0142779613      -22.9005790939  TIP3      5678            0.0000000000
     34385      5815  TIP3      OH2            -6.0760509270       31.3862183900      -22.7202454052  TIP3      5679            0.0000000000
     34386      5815  TIP3      H1             -6.3412912735       32.2760755193      -23.0150530428  TIP3      5679            0.0000000000
     34387      5815  TIP3      H2             -5.9380974269       31.6231291577      -21.7608171787  TIP3      5679            0.0000000000
     34388      5816  TIP3      OH2             3.2013909854       30.0759798220      -22.4329227220  TIP3      5680            0.0000000000
     34389      5816  TIP3      H1              3.5567122429       30.2631971983      -23.3308027649  TIP3      5680            0.0000000000
     34390      5816  TIP3      H2              2.8533217247       29.1679882001      -22.5431321385  TIP3      5680            0.0000000000
     34391      5817  TIP3      OH2             2.2593209782       27.3199971846      -22.7500668152  TIP3      5681            0.0000000000
     34392      5817  TIP3      H1              2.8264027703       26.7278577340      -22.2110741239  TIP3      5681            0.0000000000
     34393      5817  TIP3      H2              1.3716798667       27.0598015706      -22.4317036993  TIP3      5681            0.0000000000
     34394      5818  TIP3      OH2             4.1018829713       25.6084764588      -21.6895870375  TIP3      5682            0.0000000000
     34395      5818  TIP3      H1              4.1360758513       25.2691289137      -22.6156729487  TIP3      5682            0.0000000000
     34396      5818  TIP3      H2              4.9893351962       25.9974187128      -21.5913505587  TIP3      5682            0.0000000000
     34397      5819  TIP3      OH2            15.2030246185       30.0699723905      -22.1069769803  TIP3      5683            0.0000000000
     34398      5819  TIP3      H1             16.0109615599       30.1750868781      -21.5983942575  TIP3      5683            0.0000000000
     34399      5819  TIP3      H2             15.2645225578       30.8153682715      -22.7246837648  TIP3      5683            0.0000000000
     34400      5820  TIP3      OH2            18.5862598059       30.9895332864      -21.9980183177  TIP3      5684            0.0000000000
     34401      5820  TIP3      H1             19.2237452089       30.3835241798      -21.5461429668  TIP3      5684            0.0000000000
     34402      5820  TIP3      H2             19.1739548805       31.7689616030      -22.1199182318  TIP3      5684            0.0000000000
     34403      5821  TIP3      OH2            20.1131910246      -33.1558538223      -22.7028685684  TIP3      5685            0.0000000000
     34404      5821  TIP3      H1             19.4120772063      -32.5760839826      -23.0753993409  TIP3      5685            0.0000000000
     34405      5821  TIP3      H2             20.7739857461      -33.1073485343      -23.4246013129  TIP3      5685            0.0000000000
     34406      5822  TIP3      OH2            11.6625877502       27.3208572601      -22.9385523626  TIP3      5686            0.0000000000
     34407      5822  TIP3      H1             11.0063239566       26.9151775635      -22.3454554273  TIP3      5686            0.0000000000
     34408      5822  TIP3      H2             11.0719958333       27.9894954957      -23.3276188457  TIP3      5686            0.0000000000
     34409      5823  TIP3      OH2            11.2912005641       32.8398086840      -22.1010512664  TIP3      5687            0.0000000000
     34410      5823  TIP3      H1             10.9270100326       32.6750151965      -21.2277269692  TIP3      5687            0.0000000000
     34411      5823  TIP3      H2             11.7599737468       31.9894280896      -22.2808630720  TIP3      5687            0.0000000000
     34412      5824  TIP3      OH2            12.6400547339       30.5575615214      -22.6792809052  TIP3      5688            0.0000000000
     34413      5824  TIP3      H1             12.5512572594       30.5305291320      -23.6502227312  TIP3      5688            0.0000000000
     34414      5824  TIP3      H2             13.5073430429       30.1438230925      -22.5256819007  TIP3      5688            0.0000000000
     34415      5825  TIP3      OH2            20.3539483828       26.4278892548      -24.0742917901  TIP3      5689            0.0000000000
     34416      5825  TIP3      H1             20.6275514886       26.9192969180      -23.2751978769  TIP3      5689            0.0000000000
     34417      5825  TIP3      H2             20.0614376685       27.1481713961      -24.6704671290  TIP3      5689            0.0000000000
     34418      5826  TIP3      OH2            22.7575211714       25.6627092069      -22.2127540212  TIP3      5690            0.0000000000
     34419      5826  TIP3      H1             22.8209817717       24.7451149113      -22.5399750666  TIP3      5690            0.0000000000
     34420      5826  TIP3      H2             23.2800038920       26.1280426120      -22.8776274201  TIP3      5690            0.0000000000
     34421      5827  TIP3      OH2            25.8764778807       32.2062111629      -21.4288641664  TIP3      5691            0.0000000000
     34422      5827  TIP3      H1             26.6219934033       32.6113064423      -20.9589126150  TIP3      5691            0.0000000000
     34423      5827  TIP3      H2             25.3385614447       32.9792507892      -21.6672572390  TIP3      5691            0.0000000000
     34424      5828  TIP3      OH2            31.6747920615       31.3578812657      -22.9727490921  TIP3      5692            0.0000000000
     34425      5828  TIP3      H1             31.5992188250       31.0735736116      -23.8999961255  TIP3      5692            0.0000000000
     34426      5828  TIP3      H2             31.4258241624       32.3002819455      -23.0361242226  TIP3      5692            0.0000000000
     34427      5829  TIP3      OH2            27.7332009528       26.0959325249      -22.3414702996  TIP3      5693            0.0000000000
     34428      5829  TIP3      H1             27.6994645173       25.2521954269      -22.8295632798  TIP3      5693            0.0000000000
     34429      5829  TIP3      H2             28.6894695545       26.0980954233      -22.0958047688  TIP3      5693            0.0000000000
     34430      5830  TIP3      OH2           -22.1699168229      -25.3383433819       43.9162255170  TIP3      5694            0.0000000000
     34431      5830  TIP3      H1            -21.4695853444      -24.7644002230       44.2743189349  TIP3      5694            0.0000000000
     34432      5830  TIP3      H2            -21.9384543478      -25.3404381286       42.9737400334  TIP3      5694            0.0000000000
     34433      5831  TIP3      OH2           -16.9587608114      -32.7863785162      -45.7275028370  TIP3      5695            0.0000000000
     34434      5831  TIP3      H1            -16.9273613417      -32.6845857768      -44.7499084804  TIP3      5695            0.0000000000
     34435      5831  TIP3      H2            -16.2677378913      -32.1439197211      -46.0055774827  TIP3      5695            0.0000000000
     34436      5832  TIP3      OH2           -15.3961766916      -18.8581955486       42.8305479228  TIP3      5696            0.0000000000
     34437      5832  TIP3      H1            -15.1391489297      -17.9281609835       42.6938861259  TIP3      5696            0.0000000000
     34438      5832  TIP3      H2            -14.9096921667      -19.0719032574       43.6357603307  TIP3      5696            0.0000000000
     34439      5833  TIP3      OH2           -19.7179537232      -15.6322474397       44.0387271496  TIP3      5697            0.0000000000
     34440      5833  TIP3      H1            -19.1560001546      -16.3316591455       43.6568171639  TIP3      5697            0.0000000000
     34441      5833  TIP3      H2            -19.7727521515      -15.9324206442       44.9640938061  TIP3      5697            0.0000000000
     34442      5834  TIP3      OH2           -19.2189826698      -23.8063300469       43.7206188939  TIP3      5698            0.0000000000
     34443      5834  TIP3      H1            -18.7685845697      -23.1493378053       43.1553217656  TIP3      5698            0.0000000000
     34444      5834  TIP3      H2            -18.4625620750      -24.3230411322       44.0362060516  TIP3      5698            0.0000000000
     34445      5835  TIP3      OH2           -22.9700186000      -29.2436360192       44.3062606403  TIP3      5699            0.0000000000
     34446      5835  TIP3      H1            -23.4524594244      -29.6435638029       45.0628873858  TIP3      5699            0.0000000000
     34447      5835  TIP3      H2            -23.1605667850      -29.8902780809       43.6183471995  TIP3      5699            0.0000000000
     34448      5836  TIP3      OH2           -26.1915785917      -28.8408036028       42.8764952295  TIP3      5700            0.0000000000
     34449      5836  TIP3      H1            -26.0066669451      -29.0187912043       43.8327051456  TIP3      5700            0.0000000000
     34450      5836  TIP3      H2            -27.0380378510      -28.3776229955       42.9570641225  TIP3      5700            0.0000000000
     34451      5837  TIP3      OH2           -27.7788280049      -26.2093830798       44.6016971468  TIP3      5701            0.0000000000
     34452      5837  TIP3      H1            -28.5178779654      -26.2251233521       43.9510627540  TIP3      5701            0.0000000000
     34453      5837  TIP3      H2            -27.0246485536      -26.3763429548       44.0011093809  TIP3      5701            0.0000000000
     34454      5838  TIP3      OH2           -20.2527385345      -29.0390599277       43.7037239436  TIP3      5702            0.0000000000
     34455      5838  TIP3      H1            -21.1899932702      -28.9181341926       43.9637302792  TIP3      5702            0.0000000000
     34456      5838  TIP3      H2            -19.7998769539      -28.7726207971       44.5110094675  TIP3      5702            0.0000000000
     34457      5839  TIP3      OH2           -22.1137383145      -20.8697634284      -45.3585913260  TIP3      5703            0.0000000000
     34458      5839  TIP3      H1            -22.1420789942      -20.9505152099      -44.3757256296  TIP3      5703            0.0000000000
     34459      5839  TIP3      H2            -23.0444846510      -20.6750098698      -45.5589144351  TIP3      5703            0.0000000000
     34460      5840  TIP3      OH2           -31.2488944150      -24.5447631786       44.4838785763  TIP3      5704            0.0000000000
     34461      5840  TIP3      H1            -30.6339504032      -24.1600934850       43.8354225738  TIP3      5704            0.0000000000
     34462      5840  TIP3      H2            -31.5115086623      -23.7270187946       44.9415286249  TIP3      5704            0.0000000000
     34463      5841  TIP3      OH2           -18.3888555784      -20.9468344730       43.7501345129  TIP3      5705            0.0000000000
     34464      5841  TIP3      H1            -18.5032185213      -20.9975928275       44.7132271323  TIP3      5705            0.0000000000
     34465      5841  TIP3      H2            -19.3052513289      -20.7258110221       43.4843433705  TIP3      5705            0.0000000000
     34466      5842  TIP3      OH2           -14.7559775286      -15.8355392802       44.2092383276  TIP3      5706            0.0000000000
     34467      5842  TIP3      H1            -14.1512237878      -15.0754579558       44.2482294503  TIP3      5706            0.0000000000
     34468      5842  TIP3      H2            -15.5994529472      -15.4065134180       44.4548788841  TIP3      5706            0.0000000000
     34469      5843  TIP3      OH2           -24.2514630458      -20.0130163257       43.4763492031  TIP3      5707            0.0000000000
     34470      5843  TIP3      H1            -24.6761019948      -19.6801492179       42.6568899164  TIP3      5707            0.0000000000
     34471      5843  TIP3      H2            -25.0272787259      -20.2671102873       44.0118909330  TIP3      5707            0.0000000000
     34472      5844  TIP3      OH2           -26.0771843201      -19.4863556607      -45.6949501267  TIP3      5708            0.0000000000
     34473      5844  TIP3      H1            -25.5945129454      -19.5647673898      -44.8380851750  TIP3      5708            0.0000000000
     34474      5844  TIP3      H2            -25.6059029890      -18.7452837797      -46.1109234255  TIP3      5708            0.0000000000
     34475      5845  TIP3      OH2           -26.4673323669      -29.2897978583      -45.5547577017  TIP3      5709            0.0000000000
     34476      5845  TIP3      H1            -26.7094466865      -29.1840850434      -44.6230277802  TIP3      5709            0.0000000000
     34477      5845  TIP3      H2            -26.5444257271      -30.2518678226      -45.6389918193  TIP3      5709            0.0000000000
     34478      5846  TIP3      OH2           -28.9412837249      -19.5709441466       43.7169358846  TIP3      5710            0.0000000000
     34479      5846  TIP3      H1            -28.8946437943      -19.5603707798       44.6920599192  TIP3      5710            0.0000000000
     34480      5846  TIP3      H2            -28.5234521119      -20.4314880186       43.5171057186  TIP3      5710            0.0000000000
     34481      5847  TIP3      OH2           -29.8114443101      -27.0297687046       43.1119125968  TIP3      5711            0.0000000000
     34482      5847  TIP3      H1            -30.4668792875      -26.3450924333       42.9016523367  TIP3      5711            0.0000000000
     34483      5847  TIP3      H2            -30.3127739025      -27.8507722600       42.9390586534  TIP3      5711            0.0000000000
     34484      5848  TIP3      OH2           -22.1184711612      -17.6348969504       43.3217723259  TIP3      5712            0.0000000000
     34485      5848  TIP3      H1            -22.5491237588      -18.5096041338       43.3419640334  TIP3      5712            0.0000000000
     34486      5848  TIP3      H2            -21.4065135943      -17.7654284493       42.6823718887  TIP3      5712            0.0000000000
     34487      5849  TIP3      OH2           -18.1037488421      -17.9501774495       42.8157842456  TIP3      5713            0.0000000000
     34488      5849  TIP3      H1            -17.8818576895      -18.8044018320       43.2274739618  TIP3      5713            0.0000000000
     34489      5849  TIP3      H2            -17.2005429003      -17.7398602491       42.5232282983  TIP3      5713            0.0000000000
     34490      5850  TIP3      OH2           -27.2300253340      -21.7821342535       42.6584934108  TIP3      5714            0.0000000000
     34491      5850  TIP3      H1            -26.9443623188      -22.2841306893       43.4693048954  TIP3      5714            0.0000000000
     34492      5850  TIP3      H2            -26.8943467351      -22.4429635736       42.0090500772  TIP3      5714            0.0000000000
     34493      5851  TIP3      OH2           -21.3360870079      -20.7247538193       43.0271338575  TIP3      5715            0.0000000000
     34494      5851  TIP3      H1            -21.7522155199      -20.4781069231       43.8795261202  TIP3      5715            0.0000000000
     34495      5851  TIP3      H2            -21.6309465739      -21.6435387574       42.9750618032  TIP3      5715            0.0000000000
     34496      5852  TIP3      OH2           -26.4957048827      -23.3655684742       44.5793937860  TIP3      5716            0.0000000000
     34497      5852  TIP3      H1            -26.8437359213      -23.3173999736       45.4811771833  TIP3      5716            0.0000000000
     34498      5852  TIP3      H2            -26.3135561239      -24.3222923039       44.5228104108  TIP3      5716            0.0000000000
     34499      5853  TIP3      OH2           -25.2522726644      -25.7349277109       43.4327421651  TIP3      5717            0.0000000000
     34500      5853  TIP3      H1            -25.3381195235      -26.2406955375       42.6046642478  TIP3      5717            0.0000000000
     34501      5853  TIP3      H2            -24.3064936432      -25.5024683338       43.4205044228  TIP3      5717            0.0000000000
     34502      5854  TIP3      OH2           -16.1780075335      -23.1965372631       43.0478826451  TIP3      5718            0.0000000000
     34503      5854  TIP3      H1            -16.4184924684      -23.0713380470       42.1143111975  TIP3      5718            0.0000000000
     34504      5854  TIP3      H2            -16.4814803171      -22.3558700661       43.4159243860  TIP3      5718            0.0000000000
     34505      5855  TIP3      OH2           -25.4937349584      -14.7696252224       44.8845310345  TIP3      5719            0.0000000000
     34506      5855  TIP3      H1            -24.6236714381      -14.7693522593       44.4469433956  TIP3      5719            0.0000000000
     34507      5855  TIP3      H2            -25.7775992960      -13.8480305017       44.7450999291  TIP3      5719            0.0000000000
     34508      5856  TIP3      OH2           -31.4311958293      -21.0964838481       43.6482729279  TIP3      5720            0.0000000000
     34509      5856  TIP3      H1            -30.8516870851      -20.3228479577       43.5610812491  TIP3      5720            0.0000000000
     34510      5856  TIP3      H2            -32.3108046754      -20.7331344481       43.3540691393  TIP3      5720            0.0000000000
     34511      5857  TIP3      OH2           -14.5717258257      -24.3473552702       45.1094890255  TIP3      5721            0.0000000000
     34512      5857  TIP3      H1            -15.1011757007      -24.3920089899       44.2838210598  TIP3      5721            0.0000000000
     34513      5857  TIP3      H2            -14.7167679491      -23.4293054682       45.3700875151  TIP3      5721            0.0000000000
     34514      5858  TIP3      OH2           -16.0675253970      -26.8480633637       43.6174761058  TIP3      5722            0.0000000000
     34515      5858  TIP3      H1            -16.0315591077      -26.4410807363       42.7408320080  TIP3      5722            0.0000000000
     34516      5858  TIP3      H2            -16.3433374379      -27.7660362309       43.3907597696  TIP3      5722            0.0000000000
     34517      5859  TIP3      OH2           -17.0885854165      -29.3787853133       43.0968594053  TIP3      5723            0.0000000000
     34518      5859  TIP3      H1            -16.6722757646      -30.2453456804       43.2199409149  TIP3      5723            0.0000000000
     34519      5859  TIP3      H2            -18.0237579060      -29.6053770686       42.9665550946  TIP3      5723            0.0000000000
     34520      5860  TIP3      OH2           -15.1071659476      -31.3560632920       43.6151580423  TIP3      5724            0.0000000000
     34521      5860  TIP3      H1            -14.2859888991      -31.6432847064       44.0882515095  TIP3      5724            0.0000000000
     34522      5860  TIP3      H2            -14.8070090482      -30.4929658251       43.2943317734  TIP3      5724            0.0000000000
     34523      5861  TIP3      OH2           -32.7789629522      -31.8032557210       45.0943358235  TIP3      5725            0.0000000000
     34524      5861  TIP3      H1            -31.8885508660      -31.4850303535       44.8888180036  TIP3      5725            0.0000000000
     34525      5861  TIP3      H2            -32.7587915906      -31.8969723016       46.0659887300  TIP3      5725            0.0000000000
     34526      5862  TIP3      OH2           -29.3969261433      -30.8480344489       43.8374805252  TIP3      5726            0.0000000000
     34527      5862  TIP3      H1            -28.9092708371      -31.3319413648       43.1537942807  TIP3      5726            0.0000000000
     34528      5862  TIP3      H2            -29.1582927220      -29.9333802238       43.6360827356  TIP3      5726            0.0000000000
     34529      5863  TIP3      OH2           -22.6915236469      -15.0609866505       44.4681429152  TIP3      5727            0.0000000000
     34530      5863  TIP3      H1            -21.8723393926      -14.7290645472       44.0605333710  TIP3      5727            0.0000000000
     34531      5863  TIP3      H2            -22.7237275642      -15.9513781681       44.0640904469  TIP3      5727            0.0000000000
     34532      5864  TIP3      OH2           -28.9783899181      -16.5222938237       43.3710566521  TIP3      5728            0.0000000000
     34533      5864  TIP3      H1            -29.0962069882      -16.2252921002       44.2926322650  TIP3      5728            0.0000000000
     34534      5864  TIP3      H2            -29.1755752544      -17.4762799191       43.4516840211  TIP3      5728            0.0000000000
     34535      5865  TIP3      OH2            -3.4113120936      -25.2472666256       43.6839502683  TIP3      5729            0.0000000000
     34536      5865  TIP3      H1             -2.7341816035      -24.5582429502       43.8162428109  TIP3      5729            0.0000000000
     34537      5865  TIP3      H2             -3.2279901233      -25.5294191956       42.7738554877  TIP3      5729            0.0000000000
     34538      5866  TIP3      OH2             1.9924886955      -32.7660996029      -45.7938007718  TIP3      5730            0.0000000000
     34539      5866  TIP3      H1              1.9398544314      -32.6961838696      -44.8205717752  TIP3      5730            0.0000000000
     34540      5866  TIP3      H2              2.5543253727      -31.9978448412      -46.0011581608  TIP3      5730            0.0000000000
     34541      5867  TIP3      OH2             3.5936659152      -18.6755539124       43.2195668138  TIP3      5731            0.0000000000
     34542      5867  TIP3      H1              3.3763009741      -18.0543196893       43.9379317288  TIP3      5731            0.0000000000
     34543      5867  TIP3      H2              4.4577542225      -18.3189684777       42.9647463249  TIP3      5731            0.0000000000
     34544      5868  TIP3      OH2            -1.1121016089      -15.4548443262       44.0602719492  TIP3      5732            0.0000000000
     34545      5868  TIP3      H1             -0.5702156776      -16.0942289263       43.5640910062  TIP3      5732            0.0000000000
     34546      5868  TIP3      H2             -0.9461287075      -15.8091062804       44.9466189030  TIP3      5732            0.0000000000
     34547      5869  TIP3      OH2             0.1407499424      -23.5412582645       43.5611766702  TIP3      5733            0.0000000000
     34548      5869  TIP3      H1              0.1979838483      -22.9078173835       42.8327376398  TIP3      5733            0.0000000000
     34549      5869  TIP3      H2              1.1043569931      -23.6865666325       43.6921692948  TIP3      5733            0.0000000000
     34550      5870  TIP3      OH2            -4.2740895695      -29.2612981329       44.3037056485  TIP3      5734            0.0000000000
     34551      5870  TIP3      H1             -4.5810209897      -29.1372708863       45.2185474393  TIP3      5734            0.0000000000
     34552      5870  TIP3      H2             -5.0383639621      -29.6490006220       43.8486792761  TIP3      5734            0.0000000000
     34553      5871  TIP3      OH2            -7.3290563303      -28.9129167628       42.7453268632  TIP3      5735            0.0000000000
     34554      5871  TIP3      H1             -7.1686049519      -29.0771901434       43.7034151156  TIP3      5735            0.0000000000
     34555      5871  TIP3      H2             -7.8947477477      -28.1172024516       42.7575166545  TIP3      5735            0.0000000000
     34556      5872  TIP3      OH2            -8.9219800050      -26.8242993995       44.0665214128  TIP3      5736            0.0000000000
     34557      5872  TIP3      H1             -9.8434317235      -26.7199513939       43.7319330307  TIP3      5736            0.0000000000
     34558      5872  TIP3      H2             -8.4325434098      -26.3228483896       43.3980615997  TIP3      5736            0.0000000000
     34559      5873  TIP3      OH2            -1.4986050832      -29.3748241917       43.7873810431  TIP3      5737            0.0000000000
     34560      5873  TIP3      H1             -2.4522873412      -29.2643813952       43.9850150628  TIP3      5737            0.0000000000
     34561      5873  TIP3      H2             -1.0544126235      -29.1128288103       44.5979764719  TIP3      5737            0.0000000000
     34562      5874  TIP3      OH2            -3.2326600050      -20.8563115000      -45.4955575288  TIP3      5738            0.0000000000
     34563      5874  TIP3      H1             -3.3170715179      -20.8775008175      -44.5174435984  TIP3      5738            0.0000000000
     34564      5874  TIP3      H2             -4.1475731852      -20.7335538918      -45.7895897293  TIP3      5738            0.0000000000
     34565      5875  TIP3      OH2           -11.7176846232      -23.6351312066       43.6674875858  TIP3      5739            0.0000000000
     34566      5875  TIP3      H1            -11.2101162320      -23.7404104834       44.5013358691  TIP3      5739            0.0000000000
     34567      5875  TIP3      H2            -12.6179297911      -23.7295165595       44.0117420152  TIP3      5739            0.0000000000
     34568      5876  TIP3      OH2             0.4902106322      -20.6916672408       43.5142048200  TIP3      5740            0.0000000000
     34569      5876  TIP3      H1              0.3682729900      -21.0183722002       44.4220531182  TIP3      5740            0.0000000000
     34570      5876  TIP3      H2             -0.4542668698      -20.5224602988       43.2884269433  TIP3      5740            0.0000000000
     34571      5877  TIP3      OH2             4.1221101115      -15.9225325763       44.2268583843  TIP3      5741            0.0000000000
     34572      5877  TIP3      H1              4.8342608548      -15.3027199924       44.0248052919  TIP3      5741            0.0000000000
     34573      5877  TIP3      H2              3.4166461048      -15.3245575923       44.5611421798  TIP3      5741            0.0000000000
     34574      5878  TIP3      OH2            -5.3602462405      -20.3262495525       43.5191918526  TIP3      5742            0.0000000000
     34575      5878  TIP3      H1             -5.8320135352      -20.0466702886       42.7119547762  TIP3      5742            0.0000000000
     34576      5878  TIP3      H2             -6.0934526290      -20.3453525578       44.1660500727  TIP3      5742            0.0000000000
     34577      5879  TIP3      OH2            -7.3868144615      -19.8136194907      -45.7257806514  TIP3      5743            0.0000000000
     34578      5879  TIP3      H1             -6.9689028685      -19.8420509733      -44.8283929720  TIP3      5743            0.0000000000
     34579      5879  TIP3      H2             -7.6654676439      -18.8896574685      -45.7781726378  TIP3      5743            0.0000000000
     34580      5880  TIP3      OH2            -7.4780636989      -29.4359357649      -45.7106639158  TIP3      5744            0.0000000000
     34581      5880  TIP3      H1             -7.9134963391      -28.9998130166      -44.9564371716  TIP3      5744            0.0000000000
     34582      5880  TIP3      H2             -8.1248689566      -30.1353153440      -45.8988203220  TIP3      5744            0.0000000000
     34583      5881  TIP3      OH2           -10.4345018559      -19.4280126768       43.6930721934  TIP3      5745            0.0000000000
     34584      5881  TIP3      H1            -10.4029499068      -19.2051770553       44.6424687352  TIP3      5745            0.0000000000
     34585      5881  TIP3      H2             -9.7643138740      -20.1353905208       43.6298304588  TIP3      5745            0.0000000000
     34586      5882  TIP3      OH2           -11.4573550417      -26.6106778298       43.3531151863  TIP3      5746            0.0000000000
     34587      5882  TIP3      H1            -11.5985590845      -25.7115003985       43.6852781431  TIP3      5746            0.0000000000
     34588      5882  TIP3      H2            -12.2459575778      -27.0930900175       43.6487531123  TIP3      5746            0.0000000000
     34589      5883  TIP3      OH2            -3.1943329696      -17.7921999132       43.8717251118  TIP3      5747            0.0000000000
     34590      5883  TIP3      H1             -3.9383667127      -18.4121651071       43.7897148077  TIP3      5747            0.0000000000
     34591      5883  TIP3      H2             -2.8657410405      -17.8133446157       42.9619629634  TIP3      5747            0.0000000000
     34592      5884  TIP3      OH2             0.8483176830      -17.6343759558       42.7826071324  TIP3      5748            0.0000000000
     34593      5884  TIP3      H1              1.0051619425      -18.5270262417       43.1419448722  TIP3      5748            0.0000000000
     34594      5884  TIP3      H2              1.7616547951      -17.3428809563       42.6336573333  TIP3      5748            0.0000000000
     34595      5885  TIP3      OH2            -8.5883638786      -21.4574465668       42.9453039127  TIP3      5749            0.0000000000
     34596      5885  TIP3      H1             -8.3135122392      -21.9481967478       43.7637518231  TIP3      5749            0.0000000000
     34597      5885  TIP3      H2             -7.9689783216      -21.9028087020       42.3428509723  TIP3      5749            0.0000000000
     34598      5886  TIP3      OH2            -2.1758490035      -20.5477938471       43.0152980120  TIP3      5750            0.0000000000
     34599      5886  TIP3      H1             -2.5688045310      -20.2128457090       43.8513389132  TIP3      5750            0.0000000000
     34600      5886  TIP3      H2             -2.4347000547      -21.4776453280       43.0544919862  TIP3      5750            0.0000000000
     34601      5887  TIP3      OH2            -7.4158366201      -22.9570434654       44.6700205737  TIP3      5751            0.0000000000
     34602      5887  TIP3      H1             -7.5080456609      -23.0445069792       45.6298924324  TIP3      5751            0.0000000000
     34603      5887  TIP3      H2             -7.2950794880      -23.8708694151       44.3809212920  TIP3      5751            0.0000000000
     34604      5888  TIP3      OH2            -6.0307945172      -25.4313007828       43.0107097822  TIP3      5752            0.0000000000
     34605      5888  TIP3      H1             -6.0085003941      -26.3488350804       42.6967252812  TIP3      5752            0.0000000000
     34606      5888  TIP3      H2             -5.0972565265      -25.3031064142       43.2991671810  TIP3      5752            0.0000000000
     34607      5889  TIP3      OH2             2.8222978830      -23.3552282629       43.1695090111  TIP3      5753            0.0000000000
     34608      5889  TIP3      H1              3.3423785906      -23.8656596902       42.5119548727  TIP3      5753            0.0000000000
     34609      5889  TIP3      H2              2.9528753436      -22.4234421826       42.9354089470  TIP3      5753            0.0000000000
     34610      5890  TIP3      OH2            -7.0368935563      -14.6224498983       44.5052304461  TIP3      5754            0.0000000000
     34611      5890  TIP3      H1             -6.1134176649      -14.8039874715       44.2224043138  TIP3      5754            0.0000000000
     34612      5890  TIP3      H2             -7.1624002135      -13.7314745720       44.1411366307  TIP3      5754            0.0000000000
     34613      5891  TIP3      OH2           -12.9147971819      -20.5443785705       44.0828117012  TIP3      5755            0.0000000000
     34614      5891  TIP3      H1            -12.0665409281      -20.1072409789       43.8446785494  TIP3      5755            0.0000000000
     34615      5891  TIP3      H2            -13.3300672609      -20.5774478819       43.2057280228  TIP3      5755            0.0000000000
     34616      5892  TIP3      OH2             4.4373239932      -24.2163309744       45.1394256996  TIP3      5756            0.0000000000
     34617      5892  TIP3      H1              3.8440897424      -24.2481331474       44.3590782697  TIP3      5756            0.0000000000
     34618      5892  TIP3      H2              4.2069648039      -23.3479288564       45.5044932991  TIP3      5756            0.0000000000
     34619      5893  TIP3      OH2             3.2705109229      -26.7543278402       43.6085294191  TIP3      5757            0.0000000000
     34620      5893  TIP3      H1              2.9891548869      -26.2941859725       42.8095097440  TIP3      5757            0.0000000000
     34621      5893  TIP3      H2              2.8056437688      -27.6067403941       43.4779630700  TIP3      5757            0.0000000000
     34622      5894  TIP3      OH2             1.8323732097      -29.2209192720       43.0999076777  TIP3      5758            0.0000000000
     34623      5894  TIP3      H1              2.5880535475      -29.7998932227       43.3304163704  TIP3      5758            0.0000000000
     34624      5894  TIP3      H2              1.0773670995      -29.7632789297       43.3563294279  TIP3      5758            0.0000000000
     34625      5895  TIP3      OH2             4.0468764829      -30.7352043523       43.6799344074  TIP3      5759            0.0000000000
     34626      5895  TIP3      H1              4.6886449620      -31.2700140098       44.1877154355  TIP3      5759            0.0000000000
     34627      5895  TIP3      H2              4.6613363632      -30.2970718204       43.0657045288  TIP3      5759            0.0000000000
     34628      5896  TIP3      OH2           -13.0726371434      -31.7945823166       45.2230828546  TIP3      5760            0.0000000000
     34629      5896  TIP3      H1            -12.2393641117      -31.6135181098       44.7294351807  TIP3      5760            0.0000000000
     34630      5896  TIP3      H2            -12.7816203150      -32.5136551112       45.8108786636  TIP3      5760            0.0000000000
     34631      5897  TIP3      OH2           -10.9214085813      -31.2745251937       43.9241369291  TIP3      5761            0.0000000000
     34632      5897  TIP3      H1            -11.1543262604      -31.5878577159       43.0208152077  TIP3      5761            0.0000000000
     34633      5897  TIP3      H2            -10.6484259858      -30.3757955640       43.7065489007  TIP3      5761            0.0000000000
     34634      5898  TIP3      OH2            -4.3288368613      -15.1107999913       44.4646145911  TIP3      5762            0.0000000000
     34635      5898  TIP3      H1             -3.4506879762      -14.6926171383       44.4157241298  TIP3      5762            0.0000000000
     34636      5898  TIP3      H2             -4.1100198786      -15.9489272109       44.0273716737  TIP3      5762            0.0000000000
     34637      5899  TIP3      OH2           -11.0605134413      -15.6807044621       43.6614599033  TIP3      5763            0.0000000000
     34638      5899  TIP3      H1            -10.6144588404      -15.4105129498       44.4905793701  TIP3      5763            0.0000000000
     34639      5899  TIP3      H2            -10.6173254033      -16.4888287265       43.3840368535  TIP3      5763            0.0000000000
     34640      5900  TIP3      OH2            15.3660077888      -25.2753206995       43.9824031973  TIP3      5764            0.0000000000
     34641      5900  TIP3      H1             15.9196479479      -24.4991550407       44.1721864553  TIP3      5764            0.0000000000
     34642      5900  TIP3      H2             15.9858892900      -25.8555160641       43.4981273869  TIP3      5764            0.0000000000
     34643      5901  TIP3      OH2            20.9521879871      -32.7374468996      -45.9411676580  TIP3      5765            0.0000000000
     34644      5901  TIP3      H1             21.0497607368      -32.8956958756      -44.9813865927  TIP3      5765            0.0000000000
     34645      5901  TIP3      H2             21.4753670305      -31.9230472286      -46.0480138430  TIP3      5765            0.0000000000
     34646      5902  TIP3      OH2            22.7716627634      -18.7762755838       43.2177075761  TIP3      5766            0.0000000000
     34647      5902  TIP3      H1             22.8551991934      -17.8098380799       43.2194381031  TIP3      5766            0.0000000000
     34648      5902  TIP3      H2             23.6759008608      -19.0432650754       43.4414148521  TIP3      5766            0.0000000000
     34649      5903  TIP3      OH2            18.0027198278      -15.2854203639       43.9732388487  TIP3      5767            0.0000000000
     34650      5903  TIP3      H1             18.4748568532      -16.0220735947       43.5525856352  TIP3      5767            0.0000000000
     34651      5903  TIP3      H2             18.0410194355      -15.6211134844       44.8923477571  TIP3      5767            0.0000000000
     34652      5904  TIP3      OH2            19.0932750478      -23.5232473305       43.3404572952  TIP3      5768            0.0000000000
     34653      5904  TIP3      H1             19.7903135540      -23.9954517256       42.8555873105  TIP3      5768            0.0000000000
     34654      5904  TIP3      H2             19.5309144959      -22.6661372359       43.5122556350  TIP3      5768            0.0000000000
     34655      5905  TIP3      OH2            14.7560563459      -29.3383693053       44.0484718051  TIP3      5769            0.0000000000
     34656      5905  TIP3      H1             14.5388896489      -29.6429126603       44.9515774658  TIP3      5769            0.0000000000
     34657      5905  TIP3      H2             14.1715246073      -29.8906056215       43.5128077443  TIP3      5769            0.0000000000
     34658      5906  TIP3      OH2            11.4945306529      -28.5462363548       43.2440940154  TIP3      5770            0.0000000000
     34659      5906  TIP3      H1             11.7508971240      -29.0385494752       44.0560129648  TIP3      5770            0.0000000000
     34660      5906  TIP3      H2             10.9402543469      -27.8573764998       43.6534619237  TIP3      5770            0.0000000000
     34661      5907  TIP3      OH2             9.8669108026      -26.6816488658       44.3855311891  TIP3      5771            0.0000000000
     34662      5907  TIP3      H1              8.9127161170      -26.5590374145       44.1691012338  TIP3      5771            0.0000000000
     34663      5907  TIP3      H2             10.2439045304      -26.3566310472       43.5487536426  TIP3      5771            0.0000000000
     34664      5908  TIP3      OH2            17.4396416546      -28.9802484001       43.8426567433  TIP3      5772            0.0000000000
     34665      5908  TIP3      H1             16.4659380968      -29.0419096093       43.9745930761  TIP3      5772            0.0000000000
     34666      5908  TIP3      H2             17.7441504542      -28.8157252629       44.7490932019  TIP3      5772            0.0000000000
     34667      5909  TIP3      OH2            15.6287851580      -20.5645460288      -45.5322913268  TIP3      5773            0.0000000000
     34668      5909  TIP3      H1             15.4588462785      -20.6798331973      -44.5742654478  TIP3      5773            0.0000000000
     34669      5909  TIP3      H2             14.7362066487      -20.6175894652      -45.9176372641  TIP3      5773            0.0000000000
     34670      5910  TIP3      OH2             6.8584323719      -23.6881477376       43.6811907118  TIP3      5774            0.0000000000
     34671      5910  TIP3      H1              7.4978532022      -23.8802562472       44.4086848055  TIP3      5774            0.0000000000
     34672      5910  TIP3      H2              6.0180047848      -23.5971956132       44.1656697889  TIP3      5774            0.0000000000
     34673      5911  TIP3      OH2            19.4411972723      -20.8799445678       43.8692115583  TIP3      5775            0.0000000000
     34674      5911  TIP3      H1             19.3132932383      -20.9515619383       44.8372814102  TIP3      5775            0.0000000000
     34675      5911  TIP3      H2             18.5459482728      -20.5917879933       43.5907425361  TIP3      5775            0.0000000000
     34676      5912  TIP3      OH2            22.7030355471      -15.7844444005       43.8450607399  TIP3      5776            0.0000000000
     34677      5912  TIP3      H1             23.4001050832      -15.1091402579       43.8340201997  TIP3      5776            0.0000000000
     34678      5912  TIP3      H2             21.9912161481      -15.3529513505       44.3547001551  TIP3      5776            0.0000000000
     34679      5913  TIP3      OH2            13.4696177963      -20.3006395668       43.5260961321  TIP3      5777            0.0000000000
     34680      5913  TIP3      H1             13.1235423511      -19.9574926914       42.6805570755  TIP3      5777            0.0000000000
     34681      5913  TIP3      H2             12.6994504224      -20.8156327327       43.8326867090  TIP3      5777            0.0000000000
     34682      5914  TIP3      OH2            11.2563633951      -19.4614665680       44.8896089992  TIP3      5778            0.0000000000
     34683      5914  TIP3      H1             11.6453145374      -19.7925323588       45.7321136023  TIP3      5778            0.0000000000
     34684      5914  TIP3      H2             11.9504315236      -18.8730114921       44.5486509682  TIP3      5778            0.0000000000
     34685      5915  TIP3      OH2            11.1929282935      -29.6532967692      -45.4578921662  TIP3      5779            0.0000000000
     34686      5915  TIP3      H1             10.7452215938      -29.1100071415      -44.7811748759  TIP3      5779            0.0000000000
     34687      5915  TIP3      H2             10.5757127936      -30.3997710546      -45.5464609283  TIP3      5779            0.0000000000
     34688      5916  TIP3      OH2             8.2856963731      -19.1773929938       43.5688134736  TIP3      5780            0.0000000000
     34689      5916  TIP3      H1              8.2563295889      -18.9608056866       44.5154752672  TIP3      5780            0.0000000000
     34690      5916  TIP3      H2              9.0064422004      -19.8327452205       43.5656716667  TIP3      5780            0.0000000000
     34691      5917  TIP3      OH2             7.3108283819      -26.7369009288       43.4152549065  TIP3      5781            0.0000000000
     34692      5917  TIP3      H1              7.0717310819      -25.8147097282       43.2072251919  TIP3      5781            0.0000000000
     34693      5917  TIP3      H2              6.4436711949      -27.1413234703       43.5397820759  TIP3      5781            0.0000000000
     34694      5918  TIP3      OH2            15.8985735597      -17.3674923199       43.5367530242  TIP3      5782            0.0000000000
     34695      5918  TIP3      H1             15.2508228196      -18.0862283086       43.4332731273  TIP3      5782            0.0000000000
     34696      5918  TIP3      H2             16.2678539881      -17.3191951417       42.6470577905  TIP3      5782            0.0000000000
     34697      5919  TIP3      OH2            19.9800868731      -17.3305222852       42.9758300683  TIP3      5783            0.0000000000
     34698      5919  TIP3      H1             20.3341312309      -18.1615600978       43.3468332791  TIP3      5783            0.0000000000
     34699      5919  TIP3      H2             20.8062810059      -16.8628496776       42.7712550078  TIP3      5783            0.0000000000
     34700      5920  TIP3      OH2            10.3322101189      -21.3386190360       42.8308679729  TIP3      5784            0.0000000000
     34701      5920  TIP3      H1             10.5728850334      -21.8275953394       43.6539213642  TIP3      5784            0.0000000000
     34702      5920  TIP3      H2             10.8485632130      -21.8897877494       42.1974865816  TIP3      5784            0.0000000000
     34703      5921  TIP3      OH2            16.7287699670      -20.4843465392       43.0197289627  TIP3      5785            0.0000000000
     34704      5921  TIP3      H1             16.3339596450      -20.1494110775       43.8574504346  TIP3      5785            0.0000000000
     34705      5921  TIP3      H2             16.5335451579      -21.4259409494       43.0941689212  TIP3      5785            0.0000000000
     34706      5922  TIP3      OH2            11.2820635749      -22.7493250014       44.7918720570  TIP3      5786            0.0000000000
     34707      5922  TIP3      H1             11.3718622015      -22.7394594216       45.7630553443  TIP3      5786            0.0000000000
     34708      5922  TIP3      H2             11.4250682271      -23.6822458503       44.5632959021  TIP3      5786            0.0000000000
     34709      5923  TIP3      OH2            12.9865271551      -25.1949311911       42.7956406381  TIP3      5787            0.0000000000
     34710      5923  TIP3      H1             12.8882159489      -26.1213499218       42.5175867631  TIP3      5787            0.0000000000
     34711      5923  TIP3      H2             13.9244379091      -25.1658605423       43.0854213864  TIP3      5787            0.0000000000
     34712      5924  TIP3      OH2            21.7744191792      -22.9657345673       42.4951920398  TIP3      5788            0.0000000000
     34713      5924  TIP3      H1             21.1910737396      -22.8311507267       41.7335483928  TIP3      5788            0.0000000000
     34714      5924  TIP3      H2             21.9610781363      -22.0361263972       42.7103335370  TIP3      5788            0.0000000000
     34715      5925  TIP3      OH2            11.9632860188      -14.4819534446       44.2650434419  TIP3      5789            0.0000000000
     34716      5925  TIP3      H1             12.8878452505      -14.6503406901       43.9785843258  TIP3      5789            0.0000000000
     34717      5925  TIP3      H2             11.8546276200      -13.5368306134       44.0706021905  TIP3      5789            0.0000000000
     34718      5926  TIP3      OH2             5.7314781035      -20.6219805686       44.0105201828  TIP3      5790            0.0000000000
     34719      5926  TIP3      H1              6.5966891998      -20.3304198317       43.6722529608  TIP3      5790            0.0000000000
     34720      5926  TIP3      H2              5.1557842370      -20.4008739313       43.2638542090  TIP3      5790            0.0000000000
     34721      5927  TIP3      OH2            22.9411923283      -24.1326068851       44.8854998482  TIP3      5791            0.0000000000
     34722      5927  TIP3      H1             22.3436375348      -23.7774420209       44.2007069436  TIP3      5791            0.0000000000
     34723      5927  TIP3      H2             22.8463412492      -23.5059120951       45.6139684211  TIP3      5791            0.0000000000
     34724      5928  TIP3      OH2            21.6794260084      -26.8321310996       43.7904055295  TIP3      5792            0.0000000000
     34725      5928  TIP3      H1             21.9634205475      -26.2233687561       43.0967739632  TIP3      5792            0.0000000000
     34726      5928  TIP3      H2             21.3402200239      -27.6018815452       43.2924535624  TIP3      5792            0.0000000000
     34727      5929  TIP3      OH2            20.7380880981      -29.2384356405       42.5468365641  TIP3      5793            0.0000000000
     34728      5929  TIP3      H1             21.3340921578      -29.7118369843       43.1821404557  TIP3      5793            0.0000000000
     34729      5929  TIP3      H2             19.8619094574      -29.2946091650       42.9608183205  TIP3      5793            0.0000000000
     34730      5930  TIP3      OH2            22.7739793519      -30.4927436831       43.7518966909  TIP3      5794            0.0000000000
     34731      5930  TIP3      H1             23.2967486412      -31.1948113736       44.1980874001  TIP3      5794            0.0000000000
     34732      5930  TIP3      H2             23.4887992430      -30.0670239402       43.2390374198  TIP3      5794            0.0000000000
     34733      5931  TIP3      OH2             5.6597987766      -31.9556535807       45.3263975461  TIP3      5795            0.0000000000
     34734      5931  TIP3      H1              6.5285423073      -31.8354966304       44.9001503717  TIP3      5795            0.0000000000
     34735      5931  TIP3      H2              5.8076829868      -32.7602736210       45.8371299292  TIP3      5795            0.0000000000
     34736      5932  TIP3      OH2             7.8789839684      -31.2661517978       43.9817313772  TIP3      5796            0.0000000000
     34737      5932  TIP3      H1              7.4823954095      -31.6088609442       43.1545010116  TIP3      5796            0.0000000000
     34738      5932  TIP3      H2              8.2952401536      -30.4611007695       43.6314218466  TIP3      5796            0.0000000000
     34739      5933  TIP3      OH2            14.7078967375      -14.8097963080       44.2309067188  TIP3      5797            0.0000000000
     34740      5933  TIP3      H1             15.5358059687      -14.3478376390       44.0313657238  TIP3      5797            0.0000000000
     34741      5933  TIP3      H2             14.9681523737      -15.7058319520       43.9361272654  TIP3      5797            0.0000000000
     34742      5934  TIP3      OH2             8.3460359251      -15.7336421279       43.4573768665  TIP3      5798            0.0000000000
     34743      5934  TIP3      H1              8.2450814894      -15.4332097219       44.3747835951  TIP3      5798            0.0000000000
     34744      5934  TIP3      H2              8.1580297862      -16.6798940265       43.5285910230  TIP3      5798            0.0000000000
     34745      5935  TIP3      OH2            30.7313476379      -28.6514887773       43.4791842153  TIP3      5799            0.0000000000
     34746      5935  TIP3      H1             30.4701541222      -29.3528768846       44.1210559984  TIP3      5799            0.0000000000
     34747      5935  TIP3      H2             30.1712915217      -27.9275813483       43.8319461156  TIP3      5799            0.0000000000
     34748      5936  TIP3      OH2            29.1899880891      -26.7693523392       44.4963042167  TIP3      5800            0.0000000000
     34749      5936  TIP3      H1             28.2569584107      -26.6064869285       44.2554013126  TIP3      5800            0.0000000000
     34750      5936  TIP3      H2             29.6340975867      -26.2396442237       43.8077247329  TIP3      5800            0.0000000000
     34751      5937  TIP3      OH2            25.3294155255      -24.2307402692       43.6039341974  TIP3      5801            0.0000000000
     34752      5937  TIP3      H1             25.8262193226      -24.2237038524       44.4437006931  TIP3      5801            0.0000000000
     34753      5937  TIP3      H2             24.4168194778      -24.1225138845       43.9512026590  TIP3      5801            0.0000000000
     34754      5938  TIP3      OH2            32.4439084107      -19.9981092846       43.1456131452  TIP3      5802            0.0000000000
     34755      5938  TIP3      H1             31.9273543313      -19.8655646855       42.3311223154  TIP3      5802            0.0000000000
     34756      5938  TIP3      H2             31.7910834187      -19.8244257670       43.8573815895  TIP3      5802            0.0000000000
     34757      5939  TIP3      OH2            30.9194511893      -19.2078909699      -45.8715766181  TIP3      5803            0.0000000000
     34758      5939  TIP3      H1             30.7139702637      -19.5766393491      -44.9826958107  TIP3      5803            0.0000000000
     34759      5939  TIP3      H2             31.5509121957      -18.5309765368      -45.6079602711  TIP3      5803            0.0000000000
     34760      5940  TIP3      OH2            29.2263095597      -29.7265590935      -45.7225516529  TIP3      5804            0.0000000000
     34761      5940  TIP3      H1             29.2151444026      -29.0317627727      -45.0454539004  TIP3      5804            0.0000000000
     34762      5940  TIP3      H2             29.3535967031      -30.5217327410      -45.1763778501  TIP3      5804            0.0000000000
     34763      5941  TIP3      OH2            27.6463470345      -19.1724760405       44.1830815321  TIP3      5805            0.0000000000
     34764      5941  TIP3      H1             28.4477539706      -18.6479562663       44.2864947829  TIP3      5805            0.0000000000
     34765      5941  TIP3      H2             28.0415343308      -20.0394463657       43.9537290287  TIP3      5805            0.0000000000
     34766      5942  TIP3      OH2            26.2202746836      -26.8485799052       43.5756168845  TIP3      5806            0.0000000000
     34767      5942  TIP3      H1             26.0097242968      -25.8939436738       43.5764550626  TIP3      5806            0.0000000000
     34768      5942  TIP3      H2             25.3518621690      -27.2399554188       43.4069941389  TIP3      5806            0.0000000000
     34769      5943  TIP3      OH2            29.2402541236      -21.3157062711       43.2493471810  TIP3      5807            0.0000000000
     34770      5943  TIP3      H1             29.0403167935      -22.0406920823       43.8792590666  TIP3      5807            0.0000000000
     34771      5943  TIP3      H2             29.8413034191      -21.7888253774       42.6556888594  TIP3      5807            0.0000000000
     34772      5944  TIP3      OH2            29.1115620309      -23.7453401170       44.4282804832  TIP3      5808            0.0000000000
     34773      5944  TIP3      H1             29.1031830108      -23.8312596773       45.4057274981  TIP3      5808            0.0000000000
     34774      5944  TIP3      H2             30.0006349987      -24.0856888666       44.2421638747  TIP3      5808            0.0000000000
     34775      5945  TIP3      OH2            31.1250949008      -25.4439534671       42.6354185258  TIP3      5809            0.0000000000
     34776      5945  TIP3      H1             30.7176401819      -26.0109877633       41.9575317237  TIP3      5809            0.0000000000
     34777      5945  TIP3      H2             31.9277893916      -25.1263296541       42.1837216192  TIP3      5809            0.0000000000
     34778      5946  TIP3      OH2            31.6770004549      -14.7288961818       44.1970281244  TIP3      5810            0.0000000000
     34779      5946  TIP3      H1             32.5558379743      -14.2947728309       44.3459716821  TIP3      5810            0.0000000000
     34780      5946  TIP3      H2             31.2153584296      -14.0092635029       43.7556276592  TIP3      5810            0.0000000000
     34781      5947  TIP3      OH2            25.0401482567      -20.4101953868       43.9387545934  TIP3      5811            0.0000000000
     34782      5947  TIP3      H1             25.8764375593      -19.9083857266       43.9681682356  TIP3      5811            0.0000000000
     34783      5947  TIP3      H2             25.0703058195      -20.8229286660       43.0613531320  TIP3      5811            0.0000000000
     34784      5948  TIP3      OH2            24.3334395818      -32.0413505661       45.1629872433  TIP3      5812            0.0000000000
     34785      5948  TIP3      H1             25.0994545745      -31.7583824386       44.6112969963  TIP3      5812            0.0000000000
     34786      5948  TIP3      H2             24.7808562153      -32.5461608989       45.8590616735  TIP3      5812            0.0000000000
     34787      5949  TIP3      OH2            26.7136868544      -31.1566490442       44.1277593212  TIP3      5813            0.0000000000
     34788      5949  TIP3      H1             26.7603509756      -31.5160365091       43.2140969867  TIP3      5813            0.0000000000
     34789      5949  TIP3      H2             27.2747306600      -30.3739436539       44.0187152872  TIP3      5813            0.0000000000
     34790      5950  TIP3      OH2            26.2499339827      -15.8465022330       43.5071092944  TIP3      5814            0.0000000000
     34791      5950  TIP3      H1             26.3173122553      -15.7678075178       44.4852587925  TIP3      5814            0.0000000000
     34792      5950  TIP3      H2             27.0016047906      -16.4235370526       43.3409057927  TIP3      5814            0.0000000000
     34793      5951  TIP3      OH2           -21.7456018473       -6.7296402886       43.9554578587  TIP3      5815            0.0000000000
     34794      5951  TIP3      H1            -21.1683075421       -5.9741488337       44.1539045460  TIP3      5815            0.0000000000
     34795      5951  TIP3      H2            -21.1014548140       -7.3783449496       43.6269712527  TIP3      5815            0.0000000000
     34796      5952  TIP3      OH2           -16.6281967069      -13.9887532577       45.1265885700  TIP3      5816            0.0000000000
     34797      5952  TIP3      H1            -17.3096637676      -13.8185624364       45.7800408749  TIP3      5816            0.0000000000
     34798      5952  TIP3      H2            -16.0304034106      -13.2370640401       45.2746484421  TIP3      5816            0.0000000000
     34799      5953  TIP3      OH2           -15.2436023821        0.2716185115       42.9571021383  TIP3      5817            0.0000000000
     34800      5953  TIP3      H1            -15.0955502261        1.2344517087       42.9828504495  TIP3      5817            0.0000000000
     34801      5953  TIP3      H2            -14.5001990586       -0.0434182435       43.4963293580  TIP3      5817            0.0000000000
     34802      5954  TIP3      OH2           -19.7310240276        3.3592419508       44.0675894078  TIP3      5818            0.0000000000
     34803      5954  TIP3      H1            -19.2013799899        2.6051559826       43.7548868024  TIP3      5818            0.0000000000
     34804      5954  TIP3      H2            -19.7703439418        3.1591478164       45.0212262871  TIP3      5818            0.0000000000
     34805      5955  TIP3      OH2           -18.9040019476       -4.9728833723       43.4650306561  TIP3      5819            0.0000000000
     34806      5955  TIP3      H1            -18.8009988283       -4.3358642983       42.7455621008  TIP3      5819            0.0000000000
     34807      5955  TIP3      H2            -17.9591715277       -5.0204498116       43.7335168407  TIP3      5819            0.0000000000
     34808      5956  TIP3      OH2           -22.9606440049      -10.5864314239       43.8777325608  TIP3      5820            0.0000000000
     34809      5956  TIP3      H1            -22.9963825954      -10.9706517683       44.7849744736  TIP3      5820            0.0000000000
     34810      5956  TIP3      H2            -23.9062749947      -10.5713975554       43.6498995909  TIP3      5820            0.0000000000
     34811      5957  TIP3      OH2           -25.8940419421      -10.2582912166       43.1009152450  TIP3      5821            0.0000000000
     34812      5957  TIP3      H1            -26.0345078895      -10.8071398397       43.9010098787  TIP3      5821            0.0000000000
     34813      5957  TIP3      H2            -26.5027592819       -9.5175192813       43.2864445318  TIP3      5821            0.0000000000
     34814      5958  TIP3      OH2           -27.5347947202       -8.2612834969       44.3277997904  TIP3      5822            0.0000000000
     34815      5958  TIP3      H1            -28.4563149037       -8.3447169373       43.9901452258  TIP3      5822            0.0000000000
     34816      5958  TIP3      H2            -27.1867121406       -7.6697600820       43.6424836358  TIP3      5822            0.0000000000
     34817      5959  TIP3      OH2           -20.1857709400       -9.7367534525       43.7229348630  TIP3      5823            0.0000000000
     34818      5959  TIP3      H1            -21.1344884160       -9.9317823817       43.8906784658  TIP3      5823            0.0000000000
     34819      5959  TIP3      H2            -19.7784383406      -10.0946145013       44.5323498346  TIP3      5823            0.0000000000
     34820      5960  TIP3      OH2           -21.9695711605       -2.0654691759      -45.4532403946  TIP3      5824            0.0000000000
     34821      5960  TIP3      H1            -22.1703636412       -2.1780118470      -44.5086375880  TIP3      5824            0.0000000000
     34822      5960  TIP3      H2            -22.8298250280       -2.2733793722      -45.8594821891  TIP3      5824            0.0000000000
     34823      5961  TIP3      OH2           -31.0315549536       -4.9239172917       43.7188808894  TIP3      5825            0.0000000000
     34824      5961  TIP3      H1            -30.9485420395       -5.4444503228       44.5392671614  TIP3      5825            0.0000000000
     34825      5961  TIP3      H2            -31.4242198478       -4.0821199028       44.0394957176  TIP3      5825            0.0000000000
     34826      5962  TIP3      OH2           -18.2420761652       -1.8600601891       43.8334293242  TIP3      5826            0.0000000000
     34827      5962  TIP3      H1            -18.2631400803       -2.0721034347       44.7862671290  TIP3      5826            0.0000000000
     34828      5962  TIP3      H2            -19.1969605181       -1.7991911142       43.6362996745  TIP3      5826            0.0000000000
     34829      5963  TIP3      OH2           -14.6728794327        3.0559118366       43.8994057199  TIP3      5827            0.0000000000
     34830      5963  TIP3      H1            -14.0856972169        3.8070461239       44.0752708301  TIP3      5827            0.0000000000
     34831      5963  TIP3      H2            -15.5008165145        3.3564783754       44.3295197445  TIP3      5827            0.0000000000
     34832      5964  TIP3      OH2           -24.2003076059       -1.2804738702       43.4269935211  TIP3      5828            0.0000000000
     34833      5964  TIP3      H1            -24.6830683955       -1.1788149301       42.5803864189  TIP3      5828            0.0000000000
     34834      5964  TIP3      H2            -24.9118958479       -1.0339245754       44.0540210802  TIP3      5828            0.0000000000
     34835      5965  TIP3      OH2           -26.4929189456       -0.4796330197       45.0145967934  TIP3      5829            0.0000000000
     34836      5965  TIP3      H1            -26.6603133035       -1.1971290689       45.6507722817  TIP3      5829            0.0000000000
     34837      5965  TIP3      H2            -26.0795336447        0.1753362678       45.5932897023  TIP3      5829            0.0000000000
     34838      5966  TIP3      OH2           -26.5268028063      -12.1248534256       45.0449603953  TIP3      5830            0.0000000000
     34839      5966  TIP3      H1            -27.3863751393      -12.2328282387       44.5782742929  TIP3      5830            0.0000000000
     34840      5966  TIP3      H2            -26.8394841273      -12.0081388973       45.9761277921  TIP3      5830            0.0000000000
     34841      5967  TIP3      OH2           -29.0625687099       -0.6559856910       44.0066122710  TIP3      5831            0.0000000000
     34842      5967  TIP3      H1            -28.1417765510       -0.3742397432       44.2054322426  TIP3      5831            0.0000000000
     34843      5967  TIP3      H2            -28.8718585631       -1.5550307105       43.6964114973  TIP3      5831            0.0000000000
     34844      5968  TIP3      OH2           -30.0194110474       -8.3366640001       43.3172422496  TIP3      5832            0.0000000000
     34845      5968  TIP3      H1            -30.4074753319       -8.3765883375       44.2201137771  TIP3      5832            0.0000000000
     34846      5968  TIP3      H2            -30.5191443403       -9.0201064533       42.8281549597  TIP3      5832            0.0000000000
     34847      5969  TIP3      OH2           -22.2064619127        0.8549263576       43.7617504733  TIP3      5833            0.0000000000
     34848      5969  TIP3      H1            -22.8065574379        0.0894481603       43.6664962944  TIP3      5833            0.0000000000
     34849      5969  TIP3      H2            -21.7917932965        0.8539437946       42.8954795031  TIP3      5833            0.0000000000
     34850      5970  TIP3      OH2           -18.1169647001        1.1353654560       42.7749243283  TIP3      5834            0.0000000000
     34851      5970  TIP3      H1            -17.9652060640        0.1880768730       42.9670334256  TIP3      5834            0.0000000000
     34852      5970  TIP3      H2            -17.1961338425        1.4402027277       42.7872924636  TIP3      5834            0.0000000000
     34853      5971  TIP3      OH2           -27.3096651455       -2.8610699553       42.9918377938  TIP3      5835            0.0000000000
     34854      5971  TIP3      H1            -27.0454167286       -3.4337748373       43.7564401924  TIP3      5835            0.0000000000
     34855      5971  TIP3      H2            -26.6792615642       -3.2435583990       42.3570923122  TIP3      5835            0.0000000000
     34856      5972  TIP3      OH2           -21.0369105800       -1.8246279708       42.9116308168  TIP3      5836            0.0000000000
     34857      5972  TIP3      H1            -21.3555878050       -1.5297632932       43.7925120898  TIP3      5836            0.0000000000
     34858      5972  TIP3      H2            -21.1144452061       -2.7852044867       43.0116429190  TIP3      5836            0.0000000000
     34859      5973  TIP3      OH2           -26.1457087779       -4.4618609469       44.6280127684  TIP3      5837            0.0000000000
     34860      5973  TIP3      H1            -26.2573842318       -4.4850660953       45.5954226156  TIP3      5837            0.0000000000
     34861      5973  TIP3      H2            -26.1276646088       -5.4014203602       44.3910188873  TIP3      5837            0.0000000000
     34862      5974  TIP3      OH2           -24.9024005568       -6.6191955263       43.1293621794  TIP3      5838            0.0000000000
     34863      5974  TIP3      H1            -24.7390355248       -7.4599147048       42.6752014534  TIP3      5838            0.0000000000
     34864      5974  TIP3      H2            -24.0193619644       -6.2082411089       43.1909751473  TIP3      5838            0.0000000000
     34865      5975  TIP3      OH2           -16.3809629914       -4.2204774739       42.9777719986  TIP3      5839            0.0000000000
     34866      5975  TIP3      H1            -16.2387602839       -4.2185415601       42.0192344708  TIP3      5839            0.0000000000
     34867      5975  TIP3      H2            -16.4614384865       -3.2683899448       43.1560673093  TIP3      5839            0.0000000000
     34868      5976  TIP3      OH2           -25.7066389120        4.2398341601       44.8768593963  TIP3      5840            0.0000000000
     34869      5976  TIP3      H1            -24.7862736383        4.0859798869       44.5678892083  TIP3      5840            0.0000000000
     34870      5976  TIP3      H2            -25.8152600491        5.1830329620       44.6638170296  TIP3      5840            0.0000000000
     34871      5977  TIP3      OH2           -31.5812250968       -2.2558732462       44.2443799209  TIP3      5841            0.0000000000
     34872      5977  TIP3      H1            -30.9446871473       -1.5902126059       43.9327946676  TIP3      5841            0.0000000000
     34873      5977  TIP3      H2            -32.4189929688       -1.9454359061       43.8210217013  TIP3      5841            0.0000000000
     34874      5978  TIP3      OH2           -14.8193642909       -5.2947208551       44.8628827291  TIP3      5842            0.0000000000
     34875      5978  TIP3      H1            -15.4240890642       -5.1605891484       44.0951725763  TIP3      5842            0.0000000000
     34876      5978  TIP3      H2            -14.5933522509       -4.3730359254       45.0550659351  TIP3      5842            0.0000000000
     34877      5979  TIP3      OH2           -15.6566174908       -8.3179738970       43.4085600015  TIP3      5843            0.0000000000
     34878      5979  TIP3      H1            -15.6635035805       -7.7868506691       42.6031321257  TIP3      5843            0.0000000000
     34879      5979  TIP3      H2            -16.0665499030       -9.1463625774       43.0962607978  TIP3      5843            0.0000000000
     34880      5980  TIP3      OH2           -16.9230897138      -10.5415405892       42.3988850328  TIP3      5844            0.0000000000
     34881      5980  TIP3      H1            -16.4552771951      -11.1021305834       43.0397891753  TIP3      5844            0.0000000000
     34882      5980  TIP3      H2            -17.8249105206      -10.4956585284       42.7586230163  TIP3      5844            0.0000000000
     34883      5981  TIP3      OH2           -14.4071840636      -11.3207315426       44.0273433232  TIP3      5845            0.0000000000
     34884      5981  TIP3      H1            -14.0579575588      -12.2199396509       44.1078584161  TIP3      5845            0.0000000000
     34885      5981  TIP3      H2            -14.0168871092      -11.0788511462       43.1667443816  TIP3      5845            0.0000000000
     34886      5982  TIP3      OH2           -32.6822831129      -13.2790266887       45.1221024923  TIP3      5846            0.0000000000
     34887      5982  TIP3      H1            -31.7928825768      -13.0568840388       44.8288218521  TIP3      5846            0.0000000000
     34888      5982  TIP3      H2            -32.5727150625      -13.3011827328       46.0947440495  TIP3      5846            0.0000000000
     34889      5983  TIP3      OH2           -29.1277013607      -12.3313027836       43.9765988788  TIP3      5847            0.0000000000
     34890      5983  TIP3      H1            -28.8883041094      -12.4333834347       43.0350665370  TIP3      5847            0.0000000000
     34891      5983  TIP3      H2            -29.7140279761      -11.5647999354       43.9048763726  TIP3      5847            0.0000000000
     34892      5984  TIP3      OH2           -23.1254838386        3.6995501220       44.4315561780  TIP3      5848            0.0000000000
     34893      5984  TIP3      H1            -22.4659295630        4.2205425162       43.9400300070  TIP3      5848            0.0000000000
     34894      5984  TIP3      H2            -22.8872456522        2.8100676009       44.1077566300  TIP3      5848            0.0000000000
     34895      5985  TIP3      OH2           -28.9308944971        2.5701089616       43.4012994962  TIP3      5849            0.0000000000
     34896      5985  TIP3      H1            -28.5753868850        3.1000535350       44.1340073220  TIP3      5849            0.0000000000
     34897      5985  TIP3      H2            -29.5634763847        2.0019396805       43.8601914298  TIP3      5849            0.0000000000
     34898      5986  TIP3      OH2            -3.6922678926       -6.2087571113       43.7729152279  TIP3      5850            0.0000000000
     34899      5986  TIP3      H1             -2.9130467804       -5.8388847380       44.2182220103  TIP3      5850            0.0000000000
     34900      5986  TIP3      H2             -3.3026698532       -6.5997765041       42.9758038267  TIP3      5850            0.0000000000
     34901      5987  TIP3      OH2             2.3609030908      -14.1093627117       45.2695886385  TIP3      5851            0.0000000000
     34902      5987  TIP3      H1              1.5849426080      -14.0148018837       45.8232249993  TIP3      5851            0.0000000000
     34903      5987  TIP3      H2              2.7977770323      -13.2482272508       45.3689951274  TIP3      5851            0.0000000000
     34904      5988  TIP3      OH2             3.9031226932        0.3299346900       43.0276154770  TIP3      5852            0.0000000000
     34905      5988  TIP3      H1              3.6913751472        0.9390384793       43.7569039446  TIP3      5852            0.0000000000
     34906      5988  TIP3      H2              4.8057697899        0.0800055567       43.2781606571  TIP3      5852            0.0000000000
     34907      5989  TIP3      OH2            -0.7441029545        3.6040362415       44.3469052541  TIP3      5853            0.0000000000
     34908      5989  TIP3      H1             -0.5213458513        2.7698621424       43.9014024373  TIP3      5853            0.0000000000
     34909      5989  TIP3      H2             -1.0227436240        3.2776672258       45.2234414492  TIP3      5853            0.0000000000
     34910      5990  TIP3      OH2             0.1773760232       -4.8132781323       43.3234642243  TIP3      5854            0.0000000000
     34911      5990  TIP3      H1              0.2146571003       -4.5856802583       42.3868230613  TIP3      5854            0.0000000000
     34912      5990  TIP3      H2              1.0368936561       -4.4385188095       43.5908523424  TIP3      5854            0.0000000000
     34913      5991  TIP3      OH2            -4.1586985386      -10.2506624411       43.9338900359  TIP3      5855            0.0000000000
     34914      5991  TIP3      H1             -4.2492060816      -10.5577801116       44.8646444532  TIP3      5855            0.0000000000
     34915      5991  TIP3      H2             -5.0936855013      -10.1323240811       43.6997028574  TIP3      5855            0.0000000000
     34916      5992  TIP3      OH2            -6.9071796705       -9.8069806197       43.4362298114  TIP3      5856            0.0000000000
     34917      5992  TIP3      H1             -7.0164006671      -10.4660353184       44.1636429818  TIP3      5856            0.0000000000
     34918      5992  TIP3      H2             -7.7303566594       -9.2925768273       43.4860630185  TIP3      5856            0.0000000000
     34919      5993  TIP3      OH2            -8.7855541952       -7.5578246544       44.1917426963  TIP3      5857            0.0000000000
     34920      5993  TIP3      H1             -9.2163631342       -7.5678578858       43.3195117192  TIP3      5857            0.0000000000
     34921      5993  TIP3      H2             -7.9265858071       -7.1830512694       43.9224203697  TIP3      5857            0.0000000000
     34922      5994  TIP3      OH2            -1.4735998609       -9.7207896273       43.8436658495  TIP3      5858            0.0000000000
     34923      5994  TIP3      H1             -2.4264030177       -9.9504509806       43.7909106697  TIP3      5858            0.0000000000
     34924      5994  TIP3      H2             -1.3173294654       -9.8227299096       44.8026188039  TIP3      5858            0.0000000000
     34925      5995  TIP3      OH2            -3.1567163727       -1.9467445233      -45.5959613561  TIP3      5859            0.0000000000
     34926      5995  TIP3      H1             -3.2758236075       -1.9429150172      -44.6194509032  TIP3      5859            0.0000000000
     34927      5995  TIP3      H2             -4.0778432704       -2.0460956072      -45.8956523765  TIP3      5859            0.0000000000
     34928      5996  TIP3      OH2           -12.1099705629       -4.9188919391       43.4792206304  TIP3      5860            0.0000000000
     34929      5996  TIP3      H1            -11.6445238091       -5.0875835298       44.3270638149  TIP3      5860            0.0000000000
     34930      5996  TIP3      H2            -13.0189066849       -5.1938077070       43.6809747898  TIP3      5860            0.0000000000
     34931      5997  TIP3      OH2             0.6857071623       -1.5692617347       43.9927856501  TIP3      5861            0.0000000000
     34932      5997  TIP3      H1              0.5674371761       -1.8148334207       44.9392292375  TIP3      5861            0.0000000000
     34933      5997  TIP3      H2             -0.2437977180       -1.6070412722       43.6889652805  TIP3      5861            0.0000000000
     34934      5998  TIP3      OH2             4.4094825264        3.0791948655       44.7219619596  TIP3      5862            0.0000000000
     34935      5998  TIP3      H1              4.8754936957        3.9080373705       44.4657521381  TIP3      5862            0.0000000000
     34936      5998  TIP3      H2              3.5089079336        3.4050573765       44.9200799500  TIP3      5862            0.0000000000
     34937      5999  TIP3      OH2            -5.2329659433       -1.6400845379       42.9979841104  TIP3      5863            0.0000000000
     34938      5999  TIP3      H1             -5.7898688808       -1.5418794518       42.1964079996  TIP3      5863            0.0000000000
     34939      5999  TIP3      H2             -5.9401781983       -1.7045596112       43.6743981056  TIP3      5863            0.0000000000
     34940      6000  TIP3      OH2            -7.0970466570       -0.9177053980       44.9270560657  TIP3      5864            0.0000000000
     34941      6000  TIP3      H1             -6.9970580053       -0.9960869738       45.9049730533  TIP3      5864            0.0000000000
     34942      6000  TIP3      H2             -6.8596836679       -0.0001700286       44.7576238688  TIP3      5864            0.0000000000
     34943      6001  TIP3      OH2            -7.4402493308      -11.8005313894      -45.8769373487  TIP3      5865            0.0000000000
     34944      6001  TIP3      H1             -8.2947021653      -11.4124308242      -45.6416425637  TIP3      5865            0.0000000000
     34945      6001  TIP3      H2             -7.2499101128      -12.2881388769      -45.0501175604  TIP3      5865            0.0000000000
     34946      6002  TIP3      OH2           -10.5827508536       -0.6905347995       43.9762335509  TIP3      5866            0.0000000000
     34947      6002  TIP3      H1            -10.2663368631       -0.3626462877       44.8425736248  TIP3      5866            0.0000000000
     34948      6002  TIP3      H2             -9.8148901755       -1.1902106490       43.6372198132  TIP3      5866            0.0000000000
     34949      6003  TIP3      OH2           -11.4540950364       -8.2344251907       43.2751810089  TIP3      5867            0.0000000000
     34950      6003  TIP3      H1            -10.8880430605       -7.9856391994       44.0260370418  TIP3      5867            0.0000000000
     34951      6003  TIP3      H2            -12.3154450543       -8.3229906707       43.7103626049  TIP3      5867            0.0000000000
     34952      6004  TIP3      OH2            -2.9909396152        1.2078661277       43.6579610463  TIP3      5868            0.0000000000
     34953      6004  TIP3      H1             -3.7269758154        0.5869640072       43.7721427527  TIP3      5868            0.0000000000
     34954      6004  TIP3      H2             -2.8197545737        1.0652276143       42.7083255800  TIP3      5868            0.0000000000
     34955      6005  TIP3      OH2             1.1638012481        1.0823385023       42.6683610040  TIP3      5869            0.0000000000
     34956      6005  TIP3      H1              0.9999695337        0.3026866010       43.2305415703  TIP3      5869            0.0000000000
     34957      6005  TIP3      H2              2.1321967442        1.0018009344       42.5829194582  TIP3      5869            0.0000000000
     34958      6006  TIP3      OH2            -8.6744898050       -2.3953414879       42.9675065710  TIP3      5870            0.0000000000
     34959      6006  TIP3      H1             -8.2574868084       -2.5845927792       43.8386134595  TIP3      5870            0.0000000000
     34960      6006  TIP3      H2             -8.0328927455       -2.9433412048       42.4720613183  TIP3      5870            0.0000000000
     34961      6007  TIP3      OH2            -1.9379747477       -1.7534360473       42.9414074122  TIP3      5871            0.0000000000
     34962      6007  TIP3      H1             -2.3602293903       -1.4800059696       43.7843300144  TIP3      5871            0.0000000000
     34963      6007  TIP3      H2             -2.2322875031       -2.6772085303       42.9045393585  TIP3      5871            0.0000000000
     34964      6008  TIP3      OH2            -7.3725878382       -3.9269036205       44.5331789092  TIP3      5872            0.0000000000
     34965      6008  TIP3      H1             -7.3346943203       -3.8850211226       45.5010895189  TIP3      5872            0.0000000000
     34966      6008  TIP3      H2             -7.5762139586       -4.8530774035       44.3585974597  TIP3      5872            0.0000000000
     34967      6009  TIP3      OH2            -6.3228379181       -6.4827123590       43.1604552781  TIP3      5873            0.0000000000
     34968      6009  TIP3      H1             -6.0261250552       -7.3229820219       42.7666430222  TIP3      5873            0.0000000000
     34969      6009  TIP3      H2             -5.4889979916       -5.9604956306       43.2250346244  TIP3      5873            0.0000000000
     34970      6010  TIP3      OH2             2.4064729219       -3.2754189835       42.8276596621  TIP3      5874            0.0000000000
     34971      6010  TIP3      H1              2.1325458473       -3.1474708312       41.9055939332  TIP3      5874            0.0000000000
     34972      6010  TIP3      H2              1.9844646223       -2.4917930634       43.2485585522  TIP3      5874            0.0000000000
     34973      6011  TIP3      OH2            -6.0015745338        4.1306370102       44.5717832077  TIP3      5875            0.0000000000
     34974      6011  TIP3      H1             -5.0541891677        4.0861513219       44.2760185939  TIP3      5875            0.0000000000
     34975      6011  TIP3      H2             -6.3834301293        4.4986816440       43.7688608117  TIP3      5875            0.0000000000
     34976      6012  TIP3      OH2           -13.0182577647       -1.7426759476       43.9886259982  TIP3      5876            0.0000000000
     34977      6012  TIP3      H1            -12.1019053142       -1.4116064637       43.8325984450  TIP3      5876            0.0000000000
     34978      6012  TIP3      H2            -13.2875563895       -1.8924583823       43.0755562356  TIP3      5876            0.0000000000
     34979      6013  TIP3      OH2             4.0937337730       -5.2016591055       44.9441488375  TIP3      5877            0.0000000000
     34980      6013  TIP3      H1              3.4941140719       -5.0392405643       44.1948269762  TIP3      5877            0.0000000000
     34981      6013  TIP3      H2              4.6213675397       -4.3862785287       44.9163709410  TIP3      5877            0.0000000000
     34982      6014  TIP3      OH2             3.5560212373       -8.5052203139       43.4623013725  TIP3      5878            0.0000000000
     34983      6014  TIP3      H1              3.4473178428       -7.8287945817       42.7766943401  TIP3      5878            0.0000000000
     34984      6014  TIP3      H2              2.9809967358       -9.2043724725       43.0856268780  TIP3      5878            0.0000000000
     34985      6015  TIP3      OH2             1.9709620642      -10.5007049361       42.6624401086  TIP3      5879            0.0000000000
     34986      6015  TIP3      H1              2.4042762510      -10.9849919108       43.3896023774  TIP3      5879            0.0000000000
     34987      6015  TIP3      H2              1.0416174469      -10.4088241173       42.9423267342  TIP3      5879            0.0000000000
     34988      6016  TIP3      OH2             4.2737044374      -11.4661558578       44.1315059400  TIP3      5880            0.0000000000
     34989      6016  TIP3      H1              4.7820075362      -12.2641424392       44.3970966181  TIP3      5880            0.0000000000
     34990      6016  TIP3      H2              4.7191066453      -11.2402435776       43.2925562669  TIP3      5880            0.0000000000
     34991      6017  TIP3      OH2           -13.3372768185      -13.6489380638       44.9822066592  TIP3      5881            0.0000000000
     34992      6017  TIP3      H1            -12.4443626084      -13.4134348211       44.6459689359  TIP3      5881            0.0000000000
     34993      6017  TIP3      H2            -13.0793743139      -13.9892962454       45.8534202565  TIP3      5881            0.0000000000
     34994      6018  TIP3      OH2           -10.9992050385      -12.4442574473       43.8569967345  TIP3      5882            0.0000000000
     34995      6018  TIP3      H1            -10.4874107015      -12.6676485403       43.0660851875  TIP3      5882            0.0000000000
     34996      6018  TIP3      H2            -10.9914337918      -11.4738861081       43.8307373847  TIP3      5882            0.0000000000
     34997      6019  TIP3      OH2            -3.4615145055        4.0148524786       43.9335910712  TIP3      5883            0.0000000000
     34998      6019  TIP3      H1             -2.5614203022        4.3691244383       43.8176602780  TIP3      5883            0.0000000000
     34999      6019  TIP3      H2             -3.2804888483        3.0617249003       43.9014417952  TIP3      5883            0.0000000000
     35000      6020  TIP3      OH2           -10.6811801526        3.7035470122       43.5877760809  TIP3      5884            0.0000000000
     35001      6020  TIP3      H1            -10.6918652382        3.5099745097       44.5513867131  TIP3      5884            0.0000000000
     35002      6020  TIP3      H2            -10.7348128349        2.8241214188       43.2019788788  TIP3      5884            0.0000000000
     35003      6021  TIP3      OH2            15.0971884949       -6.1660357562       43.9010890339  TIP3      5885            0.0000000000
     35004      6021  TIP3      H1             15.3733874788       -6.1485056949       44.8332699628  TIP3      5885            0.0000000000
     35005      6021  TIP3      H2             15.7568128802       -6.7435193418       43.4872011046  TIP3      5885            0.0000000000
     35006      6022  TIP3      OH2            21.0555870129      -14.1337469183      -45.6992962070  TIP3      5886            0.0000000000
     35007      6022  TIP3      H1             20.4501432096      -13.4848652482      -45.3283885645  TIP3      5886            0.0000000000
     35008      6022  TIP3      H2             21.9280489004      -13.7408763784      -45.5168845182  TIP3      5886            0.0000000000
     35009      6023  TIP3      OH2            21.9873093172        0.5109742904       42.4179360977  TIP3      5887            0.0000000000
     35010      6023  TIP3      H1             22.7039910562        1.1359394543       42.6186799661  TIP3      5887            0.0000000000
     35011      6023  TIP3      H2             22.3143593979       -0.3187426931       42.7893426450  TIP3      5887            0.0000000000
     35012      6024  TIP3      OH2            17.9069648513        3.3788211730       44.2134871063  TIP3      5888            0.0000000000
     35013      6024  TIP3      H1             18.4203925884        2.6721132688       43.7594890622  TIP3      5888            0.0000000000
     35014      6024  TIP3      H2             18.0250119903        3.1495936192       45.1517035584  TIP3      5888            0.0000000000
     35015      6025  TIP3      OH2            18.9841993351       -4.4771216428       43.8696299287  TIP3      5889            0.0000000000
     35016      6025  TIP3      H1             18.6957327052       -4.2039770295       42.9889530558  TIP3      5889            0.0000000000
     35017      6025  TIP3      H2             19.9592575091       -4.3801081183       43.7585193353  TIP3      5889            0.0000000000
     35018      6026  TIP3      OH2            14.8674415782      -10.3592903375       44.0878626313  TIP3      5890            0.0000000000
     35019      6026  TIP3      H1             14.7804723300      -10.5695987367       45.0357725909  TIP3      5890            0.0000000000
     35020      6026  TIP3      H2             14.4683235988      -11.1424291503       43.6859670415  TIP3      5890            0.0000000000
     35021      6027  TIP3      OH2            11.7564013785      -10.0570983741       43.2966164300  TIP3      5891            0.0000000000
     35022      6027  TIP3      H1             11.9749065089      -10.5334243124       44.1250266096  TIP3      5891            0.0000000000
     35023      6027  TIP3      H2             11.2307384191       -9.2964533581       43.6260369551  TIP3      5891            0.0000000000
     35024      6028  TIP3      OH2            10.3244914502       -7.9968860589       44.2176510764  TIP3      5892            0.0000000000
     35025      6028  TIP3      H1              9.8688918066       -8.0280847293       43.3546544840  TIP3      5892            0.0000000000
     35026      6028  TIP3      H2             10.9001039794       -7.2274261832       44.0440261063  TIP3      5892            0.0000000000
     35027      6029  TIP3      OH2            17.5142877533       -9.5153898496       43.9224935841  TIP3      5893            0.0000000000
     35028      6029  TIP3      H1             16.5613674683       -9.7448328946       43.8534899606  TIP3      5893            0.0000000000
     35029      6029  TIP3      H2             17.6711820309       -9.7018324709       44.8718829277  TIP3      5893            0.0000000000
     35030      6030  TIP3      OH2            15.7293923322       -2.0329168457      -45.4387272895  TIP3      5894            0.0000000000
     35031      6030  TIP3      H1             15.5639150664       -2.0857059552      -44.4699531605  TIP3      5894            0.0000000000
     35032      6030  TIP3      H2             14.8260571671       -2.1019339162      -45.7977714765  TIP3      5894            0.0000000000
     35033      6031  TIP3      OH2             6.6622849853       -4.9813081473       43.4417566970  TIP3      5895            0.0000000000
     35034      6031  TIP3      H1              7.0992035279       -5.1061399364       44.3125347291  TIP3      5895            0.0000000000
     35035      6031  TIP3      H2              5.9913691759       -5.6754691712       43.4947405732  TIP3      5895            0.0000000000
     35036      6032  TIP3      OH2            19.5692974507       -1.2018232723       44.2584211946  TIP3      5896            0.0000000000
     35037      6032  TIP3      H1             19.6018178029       -1.6426918811       45.1309982427  TIP3      5896            0.0000000000
     35038      6032  TIP3      H2             18.8138855391       -1.6681293226       43.8872969451  TIP3      5896            0.0000000000
     35039      6033  TIP3      OH2            23.1209230280        3.4154306828       43.8122482605  TIP3      5897            0.0000000000
     35040      6033  TIP3      H1             23.6511517972        4.1989296046       44.0433156032  TIP3      5897            0.0000000000
     35041      6033  TIP3      H2             22.3799919554        3.4893461455       44.4312330858  TIP3      5897            0.0000000000
     35042      6034  TIP3      OH2            13.6210560370       -1.5525904350       43.3227101100  TIP3      5898            0.0000000000
     35043      6034  TIP3      H1             13.1080864560       -1.1905017773       42.5771108878  TIP3      5898            0.0000000000
     35044      6034  TIP3      H2             12.9801479908       -1.3436466322       44.0495225147  TIP3      5898            0.0000000000
     35045      6035  TIP3      OH2            11.7156665737       -0.7537061090       45.1098290917  TIP3      5899            0.0000000000
     35046      6035  TIP3      H1             11.9910948619       -1.0051226068       46.0251940129  TIP3      5899            0.0000000000
     35047      6035  TIP3      H2             10.9114828945       -0.2691805510       45.3253128914  TIP3      5899            0.0000000000
     35048      6036  TIP3      OH2            11.4716295040      -11.8475022632       45.2087856217  TIP3      5900            0.0000000000
     35049      6036  TIP3      H1             10.5606335628      -11.6007392403       44.9826434337  TIP3      5900            0.0000000000
     35050      6036  TIP3      H2             11.3259047999      -12.3554148448       46.0313174067  TIP3      5900            0.0000000000
     35051      6037  TIP3      OH2             8.4989246663       -0.9572098074       43.9497828231  TIP3      5901            0.0000000000
     35052      6037  TIP3      H1              8.6733379008       -0.6601561236       44.8651541580  TIP3      5901            0.0000000000
     35053      6037  TIP3      H2              9.3157107838       -1.4495361043       43.7248593954  TIP3      5901            0.0000000000
     35054      6038  TIP3      OH2             7.4535723277       -8.1420935859       43.2728687047  TIP3      5902            0.0000000000
     35055      6038  TIP3      H1              7.9697624192       -7.6031369212       43.8849042577  TIP3      5902            0.0000000000
     35056      6038  TIP3      H2              6.8720365539       -8.5849607884       43.9137211934  TIP3      5902            0.0000000000
     35057      6039  TIP3      OH2            15.4592070655        1.3873034970       43.3459079694  TIP3      5903            0.0000000000
     35058      6039  TIP3      H1             14.9959475190        0.5329778622       43.4042025136  TIP3      5903            0.0000000000
     35059      6039  TIP3      H2             16.1657661429        1.2065283961       42.7117147035  TIP3      5903            0.0000000000
     35060      6040  TIP3      OH2            19.5149837862        1.3906336841       43.0817420310  TIP3      5904            0.0000000000
     35061      6040  TIP3      H1             19.5940656616        0.6198485672       43.6831014358  TIP3      5904            0.0000000000
     35062      6040  TIP3      H2             20.4162862654        1.3067086244       42.7057803103  TIP3      5904            0.0000000000
     35063      6041  TIP3      OH2            10.5222494793       -2.4235736522       42.8668269864  TIP3      5905            0.0000000000
     35064      6041  TIP3      H1             10.3238472525       -3.0934783214       43.5627761247  TIP3      5905            0.0000000000
     35065      6041  TIP3      H2             11.3346391274       -2.8500910883       42.5582181592  TIP3      5905            0.0000000000
     35066      6042  TIP3      OH2            16.4843410572       -1.7745318561       43.0523685113  TIP3      5906            0.0000000000
     35067      6042  TIP3      H1             16.3528700637       -1.5016656268       43.9869568275  TIP3      5906            0.0000000000
     35068      6042  TIP3      H2             16.1549900186       -2.6779000128       43.1369445114  TIP3      5906            0.0000000000
     35069      6043  TIP3      OH2            11.1775378730       -4.2993392343       44.5343479174  TIP3      5907            0.0000000000
     35070      6043  TIP3      H1             11.0303095815       -4.6976748152       45.4029426638  TIP3      5907            0.0000000000
     35071      6043  TIP3      H2             11.7325974317       -4.9771067718       44.1145936264  TIP3      5907            0.0000000000
     35072      6044  TIP3      OH2            12.4721847881       -6.4171241989       43.3302086316  TIP3      5908            0.0000000000
     35073      6044  TIP3      H1             12.5323516023       -7.0427283727       42.5839995120  TIP3      5908            0.0000000000
     35074      6044  TIP3      H2             13.4292336453       -6.2219105762       43.5003044261  TIP3      5908            0.0000000000
     35075      6045  TIP3      OH2            21.3563493485       -3.9300284564       42.8400007108  TIP3      5909            0.0000000000
     35076      6045  TIP3      H1             21.6216459723       -4.5295297753       42.1217611003  TIP3      5909            0.0000000000
     35077      6045  TIP3      H2             21.6017233559       -3.0572517976       42.4987882870  TIP3      5909            0.0000000000
     35078      6046  TIP3      OH2            11.7972127679        4.0185896092       44.5772283812  TIP3      5910            0.0000000000
     35079      6046  TIP3      H1             12.7371395791        3.7743356388       44.4639701298  TIP3      5910            0.0000000000
     35080      6046  TIP3      H2             11.8234219792        4.9754075574       44.4293598568  TIP3      5910            0.0000000000
     35081      6047  TIP3      OH2             5.8963300766       -1.7150866688       44.0090909413  TIP3      5911            0.0000000000
     35082      6047  TIP3      H1              6.8461454906       -1.4786809772       43.9001578526  TIP3      5911            0.0000000000
     35083      6047  TIP3      H2              5.6377883480       -1.8980071583       43.0966581636  TIP3      5911            0.0000000000
     35084      6048  TIP3      OH2            22.8445668571       -4.7612336166       45.0810076681  TIP3      5912            0.0000000000
     35085      6048  TIP3      H1             22.2867335921       -4.6752302550       44.2833229744  TIP3      5912            0.0000000000
     35086      6048  TIP3      H2             23.3329572756       -3.9261775306       45.0809873857  TIP3      5912            0.0000000000
     35087      6049  TIP3      OH2            21.8707291745       -7.8045704345       43.6950840672  TIP3      5913            0.0000000000
     35088      6049  TIP3      H1             22.0021817624       -7.4450877377       42.8128053909  TIP3      5913            0.0000000000
     35089      6049  TIP3      H2             21.4944688278       -8.6864924328       43.4553656683  TIP3      5913            0.0000000000
     35090      6050  TIP3      OH2            20.8485613228      -10.0934071654       42.8809682014  TIP3      5914            0.0000000000
     35091      6050  TIP3      H1             21.3406779257      -10.8975602399       43.1112368349  TIP3      5914            0.0000000000
     35092      6050  TIP3      H2             19.9518051056      -10.2606216479       43.2048161419  TIP3      5914            0.0000000000
     35093      6051  TIP3      OH2            23.2608644735      -11.2364593498       44.0307228389  TIP3      5915            0.0000000000
     35094      6051  TIP3      H1             23.8169563136      -12.0365398154       44.0692047035  TIP3      5915            0.0000000000
     35095      6051  TIP3      H2             23.5538437200      -10.8925328907       43.1598566512  TIP3      5915            0.0000000000
     35096      6052  TIP3      OH2             5.7079002710      -13.5035688116      -45.6904525025  TIP3      5916            0.0000000000
     35097      6052  TIP3      H1              6.5846300196      -13.2388889527      -46.0424973187  TIP3      5916            0.0000000000
     35098      6052  TIP3      H2              5.9428267413      -13.7246776940      -44.7662338132  TIP3      5916            0.0000000000
     35099      6053  TIP3      OH2             8.0481959762      -12.4344648781       44.0799194808  TIP3      5917            0.0000000000
     35100      6053  TIP3      H1              8.5451044045      -12.7978325795       43.3282767002  TIP3      5917            0.0000000000
     35101      6053  TIP3      H2              7.9733935160      -11.5025048854       43.8320224311  TIP3      5917            0.0000000000
     35102      6054  TIP3      OH2            14.4244144909        3.6556143358       44.5618374680  TIP3      5918            0.0000000000
     35103      6054  TIP3      H1             14.9378635906        4.3325264628       44.1009245036  TIP3      5918            0.0000000000
     35104      6054  TIP3      H2             14.7736755478        2.8471820028       44.1081321926  TIP3      5918            0.0000000000
     35105      6055  TIP3      OH2             8.0801118939        3.0329222906       43.5926017525  TIP3      5919            0.0000000000
     35106      6055  TIP3      H1              8.0009803359        3.2252716968       44.5565807131  TIP3      5919            0.0000000000
     35107      6055  TIP3      H2              8.8938147472        2.5291292961       43.6026878127  TIP3      5919            0.0000000000
     35108      6056  TIP3      OH2            30.5710358236       -9.8974845639       43.3793481890  TIP3      5920            0.0000000000
     35109      6056  TIP3      H1             30.4993858046      -10.6505394318       44.0099850534  TIP3      5920            0.0000000000
     35110      6056  TIP3      H2             29.9433686051       -9.2527420116       43.7740456372  TIP3      5920            0.0000000000
     35111      6057  TIP3      OH2            29.2123256005       -7.8758840286       44.4026661090  TIP3      5921            0.0000000000
     35112      6057  TIP3      H1             28.4535271306       -8.0181650424       43.7995818832  TIP3      5921            0.0000000000
     35113      6057  TIP3      H2             29.5310762518       -7.0231392268       44.0561937446  TIP3      5921            0.0000000000
     35114      6058  TIP3      OH2            25.5069412240       -4.7279891520       43.6913610794  TIP3      5922            0.0000000000
     35115      6058  TIP3      H1             25.9060567369       -4.9992712632       44.5402866421  TIP3      5922            0.0000000000
     35116      6058  TIP3      H2             24.5920317534       -5.0312148989       43.7962721516  TIP3      5922            0.0000000000
     35117      6059  TIP3      OH2            32.2670492325       -1.4767640020       43.2313033874  TIP3      5923            0.0000000000
     35118      6059  TIP3      H1             31.9173134240       -1.2703066874       42.3560490342  TIP3      5923            0.0000000000
     35119      6059  TIP3      H2             31.5654920716       -1.1447391038       43.8091208620  TIP3      5923            0.0000000000
     35120      6060  TIP3      OH2            30.2869249216        0.3822684266       45.0121097814  TIP3      5924            0.0000000000
     35121      6060  TIP3      H1             30.2608716751       -0.2589888412       45.7511374089  TIP3      5924            0.0000000000
     35122      6060  TIP3      H2             30.8772558574        1.0569919621       45.3748428768  TIP3      5924            0.0000000000
     35123      6061  TIP3      OH2            29.4111751408      -11.6047179703      -45.9507365224  TIP3      5925            0.0000000000
     35124      6061  TIP3      H1             28.7346105875      -10.9175869304      -45.9451814807  TIP3      5925            0.0000000000
     35125      6061  TIP3      H2             29.5401701734      -11.7302384531      -44.9860280222  TIP3      5925            0.0000000000
     35126      6062  TIP3      OH2            27.5994268071       -0.5529527382       44.2556815175  TIP3      5926            0.0000000000
     35127      6062  TIP3      H1             28.3512613621        0.0602940539       44.3051603352  TIP3      5926            0.0000000000
     35128      6062  TIP3      H2             28.0486202831       -1.3073540374       43.8216242539  TIP3      5926            0.0000000000
     35129      6063  TIP3      OH2            26.5563630626       -8.2998932030       43.3297027128  TIP3      5927            0.0000000000
     35130      6063  TIP3      H1             26.6505396482       -7.6237977248       44.0146553577  TIP3      5927            0.0000000000
     35131      6063  TIP3      H2             25.7357501313       -8.7419059117       43.5801840789  TIP3      5927            0.0000000000
     35132      6064  TIP3      OH2            29.0328988666       -2.4383571743       42.9262883522  TIP3      5928            0.0000000000
     35133      6064  TIP3      H1             29.0311678515       -3.0771920734       43.6767869385  TIP3      5928            0.0000000000
     35134      6064  TIP3      H2             29.6835346415       -2.9069516857       42.3607736155  TIP3      5928            0.0000000000
     35135      6065  TIP3      OH2            29.4320396363       -4.1887993395       44.8338607238  TIP3      5929            0.0000000000
     35136      6065  TIP3      H1             29.4111130042       -4.4487248700       45.7762133859  TIP3      5929            0.0000000000
     35137      6065  TIP3      H2             30.1952677978       -4.6984603982       44.5305439810  TIP3      5929            0.0000000000
     35138      6066  TIP3      OH2            31.2560560671       -6.2536505693       42.9307943403  TIP3      5930            0.0000000000
     35139      6066  TIP3      H1             31.2028657861       -7.1355856434       42.5220208172  TIP3      5930            0.0000000000
     35140      6066  TIP3      H2             32.2151143654       -6.0902222146       42.9871609342  TIP3      5930            0.0000000000
     35141      6067  TIP3      OH2            31.6308534944        4.0300994126       44.3275385105  TIP3      5931            0.0000000000
     35142      6067  TIP3      H1             32.4579084341        4.4992774466       44.5863974625  TIP3      5931            0.0000000000
     35143      6067  TIP3      H2             31.2548561928        4.6945829730       43.7375817576  TIP3      5931            0.0000000000
     35144      6068  TIP3      OH2            24.6956292152       -1.5264841345       43.8805461095  TIP3      5932            0.0000000000
     35145      6068  TIP3      H1             25.4935593164       -0.9916379288       44.0416480719  TIP3      5932            0.0000000000
     35146      6068  TIP3      H2             24.8472189560       -1.7726325767       42.9495479801  TIP3      5932            0.0000000000
     35147      6069  TIP3      OH2            24.2429478432      -13.5926741909       45.0389432805  TIP3      5933            0.0000000000
     35148      6069  TIP3      H1             25.1608262763      -13.3906562608       44.7477079936  TIP3      5933            0.0000000000
     35149      6069  TIP3      H2             24.3119609175      -13.4288562928       46.0063980724  TIP3      5933            0.0000000000
     35150      6070  TIP3      OH2            26.6774321287      -12.5803998631       43.7683557531  TIP3      5934            0.0000000000
     35151      6070  TIP3      H1             27.3548832013      -13.2098124302       43.4738469302  TIP3      5934            0.0000000000
     35152      6070  TIP3      H2             27.0153557655      -11.7676083118       43.3549008266  TIP3      5934            0.0000000000
     35153      6071  TIP3      OH2            26.3768520300        3.4298640549       43.5414916951  TIP3      5935            0.0000000000
     35154      6071  TIP3      H1             26.5129292360        3.5265308970       44.5123741719  TIP3      5935            0.0000000000
     35155      6071  TIP3      H2             27.0132139432        2.7340812857       43.3275751199  TIP3      5935            0.0000000000
     35156      6072  TIP3      OH2           -22.3961212135       12.8494765915       43.8410613742  TIP3      5936            0.0000000000
     35157      6072  TIP3      H1            -21.7284251798       13.3683210620       44.3268143406  TIP3      5936            0.0000000000
     35158      6072  TIP3      H2            -21.9447526344       12.7004637618       42.9879332540  TIP3      5936            0.0000000000
     35159      6073  TIP3      OH2           -16.4838269157        4.4820691483      -45.7947509338  TIP3      5937            0.0000000000
     35160      6073  TIP3      H1            -17.1839118558        4.7422642164      -45.1868888956  TIP3      5937            0.0000000000
     35161      6073  TIP3      H2            -15.9387740587        5.2830160266      -45.8022920163  TIP3      5937            0.0000000000
     35162      6074  TIP3      OH2           -15.1866113031       19.0785009415       42.9972453372  TIP3      5938            0.0000000000
     35163      6074  TIP3      H1            -15.1165369627       20.0466831150       43.1441469690  TIP3      5938            0.0000000000
     35164      6074  TIP3      H2            -14.3272435062       18.7623630042       43.2973250161  TIP3      5938            0.0000000000
     35165      6075  TIP3      OH2           -19.9279105910       22.3593265909       44.1432822949  TIP3      5939            0.0000000000
     35166      6075  TIP3      H1            -19.6992696743       21.5138996308       43.7307801604  TIP3      5939            0.0000000000
     35167      6075  TIP3      H2            -19.6323118417       22.2166428341       45.0618814460  TIP3      5939            0.0000000000
     35168      6076  TIP3      OH2           -18.7780066623       14.0502986414       43.5471661941  TIP3      5940            0.0000000000
     35169      6076  TIP3      H1            -18.9470144571       14.4519334794       42.6831011535  TIP3      5940            0.0000000000
     35170      6076  TIP3      H2            -17.8110924557       14.1963188628       43.5923363236  TIP3      5940            0.0000000000
     35171      6077  TIP3      OH2           -22.8870313554        8.5364208842       43.9407763994  TIP3      5941            0.0000000000
     35172      6077  TIP3      H1            -23.0109484369        8.2172103558       44.8589165124  TIP3      5941            0.0000000000
     35173      6077  TIP3      H2            -23.8120257840        8.6334961245       43.6606778432  TIP3      5941            0.0000000000
     35174      6078  TIP3      OH2           -25.7100019544        9.1937906773       43.4905467509  TIP3      5942            0.0000000000
     35175      6078  TIP3      H1            -25.7711836100        8.4104082694       44.0839120773  TIP3      5942            0.0000000000
     35176      6078  TIP3      H2            -26.4276938621        9.7652478417       43.8398536647  TIP3      5942            0.0000000000
     35177      6079  TIP3      OH2           -27.6998734913       10.9204792684       44.1983147192  TIP3      5943            0.0000000000
     35178      6079  TIP3      H1            -28.6181037544       10.8694070370       43.8495316365  TIP3      5943            0.0000000000
     35179      6079  TIP3      H2            -27.2925971469       11.4604063299       43.4933525598  TIP3      5943            0.0000000000
     35180      6080  TIP3      OH2           -20.2014553563        8.8704501658       43.5793922574  TIP3      5944            0.0000000000
     35181      6080  TIP3      H1            -21.1839199575        8.8185327151       43.6048327851  TIP3      5944            0.0000000000
     35182      6080  TIP3      H2            -20.0072927055        8.6858104780       44.5153900816  TIP3      5944            0.0000000000
     35183      6081  TIP3      OH2           -21.9668226969       16.8484013664      -45.4820778754  TIP3      5945            0.0000000000
     35184      6081  TIP3      H1            -22.0736960185       16.8829873266      -44.5004552838  TIP3      5945            0.0000000000
     35185      6081  TIP3      H2            -22.8774560414       16.6820194397      -45.7759753193  TIP3      5945            0.0000000000
     35186      6082  TIP3      OH2           -31.3217358301       13.4546882717       43.8619763425  TIP3      5946            0.0000000000
     35187      6082  TIP3      H1            -30.6471845070       13.8696082213       43.2827650826  TIP3      5946            0.0000000000
     35188      6082  TIP3      H2            -31.2915823453       14.0749620145       44.6054470504  TIP3      5946            0.0000000000
     35189      6083  TIP3      OH2           -18.0825280059       17.3903183413       44.1322530636  TIP3      5947            0.0000000000
     35190      6083  TIP3      H1            -18.0415397062       17.2501828600       45.0999699723  TIP3      5947            0.0000000000
     35191      6083  TIP3      H2            -19.0238598216       17.2263007012       43.9330938728  TIP3      5947            0.0000000000
     35192      6084  TIP3      OH2           -15.2825659054       21.7105788603       43.6784623111  TIP3      5948            0.0000000000
     35193      6084  TIP3      H1            -14.4462044832       22.1657887519       43.8699285663  TIP3      5948            0.0000000000
     35194      6084  TIP3      H2            -15.8895924539       22.1945905638       44.2767216670  TIP3      5948            0.0000000000
     35195      6085  TIP3      OH2           -24.1269726939       17.7201331194       43.4171848137  TIP3      5949            0.0000000000
     35196      6085  TIP3      H1            -24.6347260321       17.9333557958       42.6026960339  TIP3      5949            0.0000000000
     35197      6085  TIP3      H2            -24.8349169832       17.8054150013       44.0971604817  TIP3      5949            0.0000000000
     35198      6086  TIP3      OH2           -25.9556928985       18.5811362765      -45.8119499874  TIP3      5950            0.0000000000
     35199      6086  TIP3      H1            -25.6474521299       18.1676245391      -44.9737093946  TIP3      5950            0.0000000000
     35200      6086  TIP3      H2            -25.9867978118       19.5028373802      -45.5173206002  TIP3      5950            0.0000000000
     35201      6087  TIP3      OH2           -26.3819376317        6.9699878314       44.9373521602  TIP3      5951            0.0000000000
     35202      6087  TIP3      H1            -27.2036970604        6.9681358794       44.4015339456  TIP3      5951            0.0000000000
     35203      6087  TIP3      H2            -26.7543013840        7.0406344943       45.8414358083  TIP3      5951            0.0000000000
     35204      6088  TIP3      OH2           -28.6191786302       18.3103667960       43.8568713697  TIP3      5952            0.0000000000
     35205      6088  TIP3      H1            -27.6680668549       18.4484144296       44.0170605507  TIP3      5952            0.0000000000
     35206      6088  TIP3      H2            -28.6229235705       17.3939368257       43.5396601985  TIP3      5952            0.0000000000
     35207      6089  TIP3      OH2           -30.3182908934       10.9004992630       43.1860449988  TIP3      5953            0.0000000000
     35208      6089  TIP3      H1            -30.7171985617       11.7692437158       43.3753646663  TIP3      5953            0.0000000000
     35209      6089  TIP3      H2            -30.6994198743       10.3393622932       43.8864063772  TIP3      5953            0.0000000000
     35210      6090  TIP3      OH2           -22.2445023533       20.0345946002       43.6341947194  TIP3      5954            0.0000000000
     35211      6090  TIP3      H1            -22.9250524864       19.4117359493       43.9440620304  TIP3      5954            0.0000000000
     35212      6090  TIP3      H2            -21.8534418547       19.4922331817       42.9392579874  TIP3      5954            0.0000000000
     35213      6091  TIP3      OH2           -17.8495288557       19.8858917667       42.7517453176  TIP3      5955            0.0000000000
     35214      6091  TIP3      H1            -17.7109585598       19.1345325963       43.3623790489  TIP3      5955            0.0000000000
     35215      6091  TIP3      H2            -16.9052532281       20.0768485182       42.6116107059  TIP3      5955            0.0000000000
     35216      6092  TIP3      OH2           -27.3295203660       16.1682401160       42.5640293354  TIP3      5956            0.0000000000
     35217      6092  TIP3      H1            -27.0393583487       15.7450236388       43.4130635140  TIP3      5956            0.0000000000
     35218      6092  TIP3      H2            -26.8951600397       15.5375403228       41.9443206615  TIP3      5956            0.0000000000
     35219      6093  TIP3      OH2           -20.8795648628       17.1882801679       43.1108849017  TIP3      5957            0.0000000000
     35220      6093  TIP3      H1            -21.2271138710       17.4362252612       43.9991797422  TIP3      5957            0.0000000000
     35221      6093  TIP3      H2            -21.0699014609       16.2412493346       43.1441674436  TIP3      5957            0.0000000000
     35222      6094  TIP3      OH2           -26.2649142081       15.0501425311       44.6717842161  TIP3      5958            0.0000000000
     35223      6094  TIP3      H1            -26.4810477590       15.1053665400       45.6149333447  TIP3      5958            0.0000000000
     35224      6094  TIP3      H2            -26.0813261602       14.1096972113       44.5598543205  TIP3      5958            0.0000000000
     35225      6095  TIP3      OH2           -24.9782711640       12.4579656894       43.0202719814  TIP3      5959            0.0000000000
     35226      6095  TIP3      H1            -24.9569014953       11.5442279114       42.6976420871  TIP3      5959            0.0000000000
     35227      6095  TIP3      H2            -24.0352077117       12.7170963026       43.1116181103  TIP3      5959            0.0000000000
     35228      6096  TIP3      OH2           -16.6544291569       15.5418517713       42.6909965765  TIP3      5960            0.0000000000
     35229      6096  TIP3      H1            -16.8514132635       15.7675343475       41.7684816074  TIP3      5960            0.0000000000
     35230      6096  TIP3      H2            -16.8644893730       16.3795989565       43.1637064485  TIP3      5960            0.0000000000
     35231      6097  TIP3      OH2           -25.2127274358       23.1471953354       44.8598684889  TIP3      5961            0.0000000000
     35232      6097  TIP3      H1            -24.2815630639       22.9772331127       44.5963911710  TIP3      5961            0.0000000000
     35233      6097  TIP3      H2            -25.4778878220       23.7702011573       44.1699131688  TIP3      5961            0.0000000000
     35234      6098  TIP3      OH2           -31.5153500286       17.3526811493       43.7358205599  TIP3      5962            0.0000000000
     35235      6098  TIP3      H1            -30.8061444677       17.9860758436       43.5482174244  TIP3      5962            0.0000000000
     35236      6098  TIP3      H2            -32.3019123892       17.7328051000       43.2993207467  TIP3      5962            0.0000000000
     35237      6099  TIP3      OH2           -14.9338124612       13.6458329218       44.8042775458  TIP3      5963            0.0000000000
     35238      6099  TIP3      H1            -15.3767365292       13.7194875731       43.9410059369  TIP3      5963            0.0000000000
     35239      6099  TIP3      H2            -14.5487693219       14.5319235630       44.9138191080  TIP3      5963            0.0000000000
     35240      6100  TIP3      OH2           -15.8112570150       10.8168479312       43.4381482397  TIP3      5964            0.0000000000
     35241      6100  TIP3      H1            -15.8507266645       11.3321907827       42.6182614504  TIP3      5964            0.0000000000
     35242      6100  TIP3      H2            -16.1623520717        9.9622010221       43.1103683509  TIP3      5964            0.0000000000
     35243      6101  TIP3      OH2           -16.9392179092        8.4403659542       42.5265628833  TIP3      5965            0.0000000000
     35244      6101  TIP3      H1            -16.4800187494        7.8696408385       43.1614259164  TIP3      5965            0.0000000000
     35245      6101  TIP3      H2            -17.8768364476        8.3763210940       42.7843454844  TIP3      5965            0.0000000000
     35246      6102  TIP3      OH2           -14.4363253765        7.2620531682       44.0044127555  TIP3      5966            0.0000000000
     35247      6102  TIP3      H1            -13.7205958881        6.6408642944       44.2531967440  TIP3      5966            0.0000000000
     35248      6102  TIP3      H2            -14.0840154329        7.5799098954       43.1451022405  TIP3      5966            0.0000000000
     35249      6103  TIP3      OH2           -32.6315098664        5.6470645880       45.1228931656  TIP3      5967            0.0000000000
     35250      6103  TIP3      H1            -31.7526734737        5.9132341604       44.8183276764  TIP3      5967            0.0000000000
     35251      6103  TIP3      H2            -32.5032299081        5.5824164846       46.0857082103  TIP3      5967            0.0000000000
     35252      6104  TIP3      OH2           -29.2537837192        6.7455957250       43.6499317460  TIP3      5968            0.0000000000
     35253      6104  TIP3      H1            -29.2267004355        6.2019901445       42.8503137234  TIP3      5968            0.0000000000
     35254      6104  TIP3      H2            -29.7879521943        7.4924346004       43.3292946888  TIP3      5968            0.0000000000
     35255      6105  TIP3      OH2           -22.6329964412       22.6877192064       44.3921756933  TIP3      5969            0.0000000000
     35256      6105  TIP3      H1            -21.7050914415       22.9168054891       44.1739192219  TIP3      5969            0.0000000000
     35257      6105  TIP3      H2            -22.6516657458       21.7911945007       43.9971564992  TIP3      5969            0.0000000000
     35258      6106  TIP3      OH2           -28.7944666095       21.7871591229       43.3183450677  TIP3      5970            0.0000000000
     35259      6106  TIP3      H1            -28.8368316887       21.8662509328       44.2903764964  TIP3      5970            0.0000000000
     35260      6106  TIP3      H2            -29.6375335700       21.3689993964       43.1130459130  TIP3      5970            0.0000000000
     35261      6107  TIP3      OH2            -3.8421714457       12.6528182762       43.9582651828  TIP3      5971            0.0000000000
     35262      6107  TIP3      H1             -3.0914419559       13.0873771913       44.4000994201  TIP3      5971            0.0000000000
     35263      6107  TIP3      H2             -3.4095975438       12.1660540705       43.2360537223  TIP3      5971            0.0000000000
     35264      6108  TIP3      OH2             1.9937008617        4.2815655320       45.0652240788  TIP3      5972            0.0000000000
     35265      6108  TIP3      H1              1.0810389749        3.9788174416       44.9199778140  TIP3      5972            0.0000000000
     35266      6108  TIP3      H2              2.1818468899        4.6409152066       44.1668669973  TIP3      5972            0.0000000000
     35267      6109  TIP3      OH2             3.6973294702       19.1988116708       43.0278838497  TIP3      5973            0.0000000000
     35268      6109  TIP3      H1              3.8161825464       20.1695955614       43.0403635940  TIP3      5973            0.0000000000
     35269      6109  TIP3      H2              4.5992927882       18.9113123127       43.2153147309  TIP3      5973            0.0000000000
     35270      6110  TIP3      OH2            -0.9354687259       22.3463354151       44.1018776012  TIP3      5974            0.0000000000
     35271      6110  TIP3      H1             -0.5555201385       21.5847381626       43.6343343892  TIP3      5974            0.0000000000
     35272      6110  TIP3      H2             -0.7185623819       22.0974764452       45.0231825316  TIP3      5974            0.0000000000
     35273      6111  TIP3      OH2             0.1364032820       14.0562416090       43.4222857391  TIP3      5975            0.0000000000
     35274      6111  TIP3      H1              0.4163015995       13.3833488626       42.7842567740  TIP3      5975            0.0000000000
     35275      6111  TIP3      H2              0.9923290314       14.4980501163       43.5879972424  TIP3      5975            0.0000000000
     35276      6112  TIP3      OH2            -3.9438856364        8.4128444160       43.9032439562  TIP3      5976            0.0000000000
     35277      6112  TIP3      H1             -3.9523029677        8.2311697497       44.8708690356  TIP3      5976            0.0000000000
     35278      6112  TIP3      H2             -4.6826005881        7.8500789105       43.6356668749  TIP3      5976            0.0000000000
     35279      6113  TIP3      OH2            -7.3743380299        8.7081545474       43.3342326205  TIP3      5977            0.0000000000
     35280      6113  TIP3      H1             -7.2258068259        8.0420163522       44.0462177712  TIP3      5977            0.0000000000
     35281      6113  TIP3      H2             -7.6484766085        9.4790239834       43.8668500244  TIP3      5977            0.0000000000
     35282      6114  TIP3      OH2            -8.6102700988       10.9799975944       44.2994694084  TIP3      5978            0.0000000000
     35283      6114  TIP3      H1             -8.9855103212       10.7479441221       43.4264347413  TIP3      5978            0.0000000000
     35284      6114  TIP3      H2             -7.9773200256       11.6749992303       44.0315177745  TIP3      5978            0.0000000000
     35285      6115  TIP3      OH2            -1.5497847449        9.5543571985       44.4072410922  TIP3      5979            0.0000000000
     35286      6115  TIP3      H1             -2.3605897460        9.2303822758       43.9513411110  TIP3      5979            0.0000000000
     35287      6115  TIP3      H2             -0.8995659494        8.9183256061       44.0970266421  TIP3      5979            0.0000000000
     35288      6116  TIP3      OH2            -3.2863494729       16.9626607385      -45.5378896758  TIP3      5980            0.0000000000
     35289      6116  TIP3      H1             -3.4167920660       16.9844811074      -44.5605633320  TIP3      5980            0.0000000000
     35290      6116  TIP3      H2             -4.1992077866       17.0211588768      -45.8823775038  TIP3      5980            0.0000000000
     35291      6117  TIP3      OH2           -12.3176273706       13.8617246518       43.5698544521  TIP3      5981            0.0000000000
     35292      6117  TIP3      H1            -11.8780848784       13.8229526584       44.4420661465  TIP3      5981            0.0000000000
     35293      6117  TIP3      H2            -13.2078272389       13.5450720933       43.7822157839  TIP3      5981            0.0000000000
     35294      6118  TIP3      OH2             0.6742520961       16.9860970515       43.8497083016  TIP3      5982            0.0000000000
     35295      6118  TIP3      H1              0.4927851005       16.7593885237       44.7851549608  TIP3      5982            0.0000000000
     35296      6118  TIP3      H2             -0.2567903400       17.0801661146       43.5331843402  TIP3      5982            0.0000000000
     35297      6119  TIP3      OH2             4.0468795562       21.9473173008       43.9106221559  TIP3      5983            0.0000000000
     35298      6119  TIP3      H1              4.6782121970       22.6763798452       44.0775972621  TIP3      5983            0.0000000000
     35299      6119  TIP3      H2              3.2616597596       22.2715568398       44.3932172622  TIP3      5983            0.0000000000
     35300      6120  TIP3      OH2            -5.2784900505       17.2839201704       43.3547679624  TIP3      5984            0.0000000000
     35301      6120  TIP3      H1             -5.6792288110       17.6790259018       42.5635120746  TIP3      5984            0.0000000000
     35302      6120  TIP3      H2             -5.9941777621       17.4952361035       43.9944006830  TIP3      5984            0.0000000000
     35303      6121  TIP3      OH2            -7.1912963369       18.2280623047      -46.0282499414  TIP3      5985            0.0000000000
     35304      6121  TIP3      H1             -6.8515543991       18.1556989616      -45.1075611201  TIP3      5985            0.0000000000
     35305      6121  TIP3      H2             -7.8514142142       18.9335475518      -45.9416357809  TIP3      5985            0.0000000000
     35306      6122  TIP3      OH2            -7.1406278209        6.7481521294      -45.9514014986  TIP3      5986            0.0000000000
     35307      6122  TIP3      H1             -7.4768379888        6.8891933387      -45.0431902222  TIP3      5986            0.0000000000
     35308      6122  TIP3      H2             -7.1427069653        5.7780562114      -45.9421886003  TIP3      5986            0.0000000000
     35309      6123  TIP3      OH2           -10.4301593874       18.1836941390       43.8606163520  TIP3      5987            0.0000000000
     35310      6123  TIP3      H1            -10.1654327420       18.4071260526       44.7729302610  TIP3      5987            0.0000000000
     35311      6123  TIP3      H2             -9.6559227674       17.6636709861       43.5758517396  TIP3      5987            0.0000000000
     35312      6124  TIP3      OH2           -11.2942017388       10.3079744292       43.2160943302  TIP3      5988            0.0000000000
     35313      6124  TIP3      H1            -10.8624720621       10.7902066397       43.9251550441  TIP3      5988            0.0000000000
     35314      6124  TIP3      H2            -12.2014231158       10.2282348383       43.5452679853  TIP3      5988            0.0000000000
     35315      6125  TIP3      OH2            -2.9429822690       20.2235074624       43.4973015582  TIP3      5989            0.0000000000
     35316      6125  TIP3      H1             -3.4465633576       19.4144705647       43.6773285420  TIP3      5989            0.0000000000
     35317      6125  TIP3      H2             -2.4865232685       19.9735880655       42.6833478853  TIP3      5989            0.0000000000
     35318      6126  TIP3      OH2             0.9751242951       19.9781352067       42.9445427856  TIP3      5990            0.0000000000
     35319      6126  TIP3      H1              1.0673424479       19.0480109046       43.2241284636  TIP3      5990            0.0000000000
     35320      6126  TIP3      H2              1.9194253843       20.2077260093       42.9444134340  TIP3      5990            0.0000000000
     35321      6127  TIP3      OH2            -8.3826320354       16.4741765618       42.7442157070  TIP3      5991            0.0000000000
     35322      6127  TIP3      H1             -8.2100462021       16.0723037680       43.6302510322  TIP3      5991            0.0000000000
     35323      6127  TIP3      H2             -7.9917073536       15.7633902612       42.2033084824  TIP3      5991            0.0000000000
     35324      6128  TIP3      OH2            -1.9751752729       17.0818544153       43.1516723157  TIP3      5992            0.0000000000
     35325      6128  TIP3      H1             -2.3630090042       17.3264695177       44.0256722882  TIP3      5992            0.0000000000
     35326      6128  TIP3      H2             -2.3655727768       16.1958639778       43.0799278403  TIP3      5992            0.0000000000
     35327      6129  TIP3      OH2            -7.7056827423       14.8860327555       44.6886151709  TIP3      5993            0.0000000000
     35328      6129  TIP3      H1             -7.8415124865       14.8786770493       45.6594174118  TIP3      5993            0.0000000000
     35329      6129  TIP3      H2             -7.3307510796       14.0020255626       44.5447274597  TIP3      5993            0.0000000000
     35330      6130  TIP3      OH2            -6.4525407073       12.4060659219       43.2491114883  TIP3      5994            0.0000000000
     35331      6130  TIP3      H1             -6.3181383233       11.5662780109       42.7754104847  TIP3      5994            0.0000000000
     35332      6130  TIP3      H2             -5.5225853904       12.7147379277       43.3765696320  TIP3      5994            0.0000000000
     35333      6131  TIP3      OH2             2.7255077539       15.0184384337       43.0763436079  TIP3      5995            0.0000000000
     35334      6131  TIP3      H1              2.6593347183       15.0113140169       42.1094109045  TIP3      5995            0.0000000000
     35335      6131  TIP3      H2              2.3584576027       15.8963558690       43.2979192356  TIP3      5995            0.0000000000
     35336      6132  TIP3      OH2            -6.8945598236       23.0302249978       43.9589326648  TIP3      5996            0.0000000000
     35337      6132  TIP3      H1             -6.0208632984       22.9390018182       44.3687534961  TIP3      5996            0.0000000000
     35338      6132  TIP3      H2             -6.6307538630       23.2686495612       43.0554644498  TIP3      5996            0.0000000000
     35339      6133  TIP3      OH2           -12.9011801119       17.0582177144       43.9461729067  TIP3      5997            0.0000000000
     35340      6133  TIP3      H1            -11.9850001955       17.3813657269       43.8345427772  TIP3      5997            0.0000000000
     35341      6133  TIP3      H2            -13.1378480559       16.9066881309       43.0225098837  TIP3      5997            0.0000000000
     35342      6134  TIP3      OH2             4.6471762221       13.8719120140       45.1589702601  TIP3      5998            0.0000000000
     35343      6134  TIP3      H1              4.0292217900       13.8193511189       44.4009290716  TIP3      5998            0.0000000000
     35344      6134  TIP3      H2              4.8421954412       14.8251226098       45.1532031855  TIP3      5998            0.0000000000
     35345      6135  TIP3      OH2             2.7153123149       11.0387655308       43.4998306198  TIP3      5999            0.0000000000
     35346      6135  TIP3      H1              2.6829511775       11.4640100280       42.6279736405  TIP3      5999            0.0000000000
     35347      6135  TIP3      H2              2.7037828905       10.1001748813       43.2266754394  TIP3      5999            0.0000000000
     35348      6136  TIP3      OH2             2.1286851655        8.5286782251       42.4795592662  TIP3      6000            0.0000000000
     35349      6136  TIP3      H1              2.3167970757        7.6184018307       42.7546887016  TIP3      6000            0.0000000000
     35350      6136  TIP3      H2              1.1806226085        8.5734882830       42.6421235019  TIP3      6000            0.0000000000
     35351      6137  TIP3      OH2             4.0644500235        7.4402853238       44.2705604063  TIP3      6001            0.0000000000
     35352      6137  TIP3      H1              4.6148510217        6.6273503585       44.3365562965  TIP3      6001            0.0000000000
     35353      6137  TIP3      H2              4.3335283148        7.7549866547       43.3939240411  TIP3      6001            0.0000000000
     35354      6138  TIP3      OH2           -12.9314876896        5.1919094444      -45.7165177860  TIP3      6002            0.0000000000
     35355      6138  TIP3      H1            -12.0782408130        5.5130791749      -46.0725864133  TIP3      6002            0.0000000000
     35356      6138  TIP3      H2            -12.7544055262        5.1810022974      -44.7589014646  TIP3      6002            0.0000000000
     35357      6139  TIP3      OH2           -11.2345910468        6.9476977727       43.7425780409  TIP3      6003            0.0000000000
     35358      6139  TIP3      H1            -10.5261028136        6.6396106510       43.1503849853  TIP3      6003            0.0000000000
     35359      6139  TIP3      H2            -11.2006855588        7.9026851520       43.5893180960  TIP3      6003            0.0000000000
     35360      6140  TIP3      OH2            -4.1524110139       22.6428910803       44.5408728199  TIP3      6004            0.0000000000
     35361      6140  TIP3      H1             -3.3823288977       23.1156977567       44.1840583935  TIP3      6004            0.0000000000
     35362      6140  TIP3      H2             -3.9809452788       21.7776585558       44.1094757252  TIP3      6004            0.0000000000
     35363      6141  TIP3      OH2           -11.4402020292       22.1000228672       43.3134188407  TIP3      6005            0.0000000000
     35364      6141  TIP3      H1            -11.2103937742       22.0908949754       44.2729188538  TIP3      6005            0.0000000000
     35365      6141  TIP3      H2            -10.9727999696       21.3225834669       42.9947670929  TIP3      6005            0.0000000000
     35366      6142  TIP3      OH2            15.3057822334       12.7844015800       43.8385352190  TIP3      6006            0.0000000000
     35367      6142  TIP3      H1             15.9945489709       13.2733461267       44.3166290295  TIP3      6006            0.0000000000
     35368      6142  TIP3      H2             15.7738653745       12.5596020333       43.0155348464  TIP3      6006            0.0000000000
     35369      6143  TIP3      OH2            21.1078299016        4.5843817977       45.5542459438  TIP3      6007            0.0000000000
     35370      6143  TIP3      H1             20.2399490147        4.1860175682       45.3695474682  TIP3      6007            0.0000000000
     35371      6143  TIP3      H2             21.1426108779        5.3443601263       44.9488982241  TIP3      6007            0.0000000000
     35372      6144  TIP3      OH2            22.4453407250       19.0011635253       43.3739072379  TIP3      6008            0.0000000000
     35373      6144  TIP3      H1             22.2334334178       19.5257435055       44.1618843871  TIP3      6008            0.0000000000
     35374      6144  TIP3      H2             23.4064493609       19.1106865783       43.3615287848  TIP3      6008            0.0000000000
     35375      6145  TIP3      OH2            18.1010025117       22.3304484631       44.2389143134  TIP3      6009            0.0000000000
     35376      6145  TIP3      H1             18.2562290655       21.5761550675       43.6518642566  TIP3      6009            0.0000000000
     35377      6145  TIP3      H2             18.1697713278       21.9017324776       45.1122028209  TIP3      6009            0.0000000000
     35378      6146  TIP3      OH2            18.9530444825       14.0451973811       43.5885471003  TIP3      6010            0.0000000000
     35379      6146  TIP3      H1             18.9492356095       14.6598221304       42.8435332561  TIP3      6010            0.0000000000
     35380      6146  TIP3      H2             19.9217666823       13.9992482779       43.7001102046  TIP3      6010            0.0000000000
     35381      6147  TIP3      OH2            14.7383318506        8.4709723440       44.1111486605  TIP3      6011            0.0000000000
     35382      6147  TIP3      H1             14.6136961805        8.1150852471       45.0195470583  TIP3      6011            0.0000000000
     35383      6147  TIP3      H2             13.8522087127        8.3148636242       43.7476717299  TIP3      6011            0.0000000000
     35384      6148  TIP3      OH2            11.8822720836        8.7318982877       43.1922130425  TIP3      6012            0.0000000000
     35385      6148  TIP3      H1             11.8623889341        8.2736560464       44.0625874521  TIP3      6012            0.0000000000
     35386      6148  TIP3      H2             11.1728431765        9.3902074188       43.2968616773  TIP3      6012            0.0000000000
     35387      6149  TIP3      OH2             9.7723391607       10.8118398124       44.3998321271  TIP3      6013            0.0000000000
     35388      6149  TIP3      H1              8.9138363256       10.7841396819       43.9035835089  TIP3      6013            0.0000000000
     35389      6149  TIP3      H2             10.2457217637       11.4471501351       43.8513479673  TIP3      6013            0.0000000000
     35390      6150  TIP3      OH2            17.4831747423        9.0850795862       43.9384289796  TIP3      6014            0.0000000000
     35391      6150  TIP3      H1             16.5240100632        8.9156249003       44.0678592808  TIP3      6014            0.0000000000
     35392      6150  TIP3      H2             17.8241313348        8.9985538784       44.8379632035  TIP3      6014            0.0000000000
     35393      6151  TIP3      OH2            15.7093084665       16.9420244566      -45.5008148966  TIP3      6015            0.0000000000
     35394      6151  TIP3      H1             15.5532460115       16.7444695646      -44.5534832710  TIP3      6015            0.0000000000
     35395      6151  TIP3      H2             14.7978059769       16.9403389672      -45.8511776691  TIP3      6015            0.0000000000
     35396      6152  TIP3      OH2             6.7814663089       13.7953101467       43.4364758784  TIP3      6016            0.0000000000
     35397      6152  TIP3      H1              7.2989918801       13.6027340400       44.2487847196  TIP3      6016            0.0000000000
     35398      6152  TIP3      H2              5.8969508226       13.9198316972       43.8245428616  TIP3      6016            0.0000000000
     35399      6153  TIP3      OH2            19.4932383378       17.0287752484       43.9444757092  TIP3      6017            0.0000000000
     35400      6153  TIP3      H1             19.3127151939       16.8026458153       44.8856531307  TIP3      6017            0.0000000000
     35401      6153  TIP3      H2             18.5790409162       17.1556186401       43.6324364229  TIP3      6017            0.0000000000
     35402      6154  TIP3      OH2            23.0544148973       21.8992331119       44.3890136428  TIP3      6018            0.0000000000
     35403      6154  TIP3      H1             23.9000145937       22.2724057151       44.1026894116  TIP3      6018            0.0000000000
     35404      6154  TIP3      H2             22.4872645444       22.6886284410       44.5092991147  TIP3      6018            0.0000000000
     35405      6155  TIP3      OH2            13.5156547243       17.3136613450       43.5058967683  TIP3      6019            0.0000000000
     35406      6155  TIP3      H1             13.0659375744       17.6329543620       42.7009782843  TIP3      6019            0.0000000000
     35407      6155  TIP3      H2             12.8182971574       17.5456353736       44.1683400454  TIP3      6019            0.0000000000
     35408      6156  TIP3      OH2            11.6128579646       18.3729480410      -46.0123450518  TIP3      6020            0.0000000000
     35409      6156  TIP3      H1             11.9141903706       18.1117101125      -45.1106353720  TIP3      6020            0.0000000000
     35410      6156  TIP3      H2             10.8561612980       18.9236777883      -45.7844002940  TIP3      6020            0.0000000000
     35411      6157  TIP3      OH2            11.4082419768        6.8743722185       45.1635451837  TIP3      6021            0.0000000000
     35412      6157  TIP3      H1             10.6164879314        6.8127972736       44.5922301454  TIP3      6021            0.0000000000
     35413      6157  TIP3      H2             10.9732599846        6.9598748574       46.0547196506  TIP3      6021            0.0000000000
     35414      6158  TIP3      OH2             8.2617385127       18.2138843515       43.9280683817  TIP3      6022            0.0000000000
     35415      6158  TIP3      H1              8.3612749090       18.3082434545       44.8918970647  TIP3      6022            0.0000000000
     35416      6158  TIP3      H2              9.1169124216       17.7896003607       43.7165068341  TIP3      6022            0.0000000000
     35417      6159  TIP3      OH2             7.5513723036       11.0372675647       43.0352302980  TIP3      6023            0.0000000000
     35418      6159  TIP3      H1              7.1249113542       11.9082619278       43.0325054153  TIP3      6023            0.0000000000
     35419      6159  TIP3      H2              6.8136994722       10.4128900118       42.8891441482  TIP3      6023            0.0000000000
     35420      6160  TIP3      OH2            15.9501719401       20.2680633026       43.6327354677  TIP3      6024            0.0000000000
     35421      6160  TIP3      H1             15.3286575061       19.5617287490       43.8649683333  TIP3      6024            0.0000000000
     35422      6160  TIP3      H2             16.1958729485       19.9938694063       42.7363114890  TIP3      6024            0.0000000000
     35423      6161  TIP3      OH2            19.6555509127       20.0991310114       42.8809661597  TIP3      6025            0.0000000000
     35424      6161  TIP3      H1             19.5880232235       19.5609162708       43.6817125623  TIP3      6025            0.0000000000
     35425      6161  TIP3      H2             20.6043730825       19.9553865203       42.7055483787  TIP3      6025            0.0000000000
     35426      6162  TIP3      OH2            10.3655663704       16.3514646557       42.9159223482  TIP3      6026            0.0000000000
     35427      6162  TIP3      H1             10.5930541986       15.8221375518       43.7246888736  TIP3      6026            0.0000000000
     35428      6162  TIP3      H2             11.0712033079       15.9528992008       42.3637871774  TIP3      6026            0.0000000000
     35429      6163  TIP3      OH2            16.7653358159       17.1538879513       43.1295667539  TIP3      6027            0.0000000000
     35430      6163  TIP3      H1             16.4194125720       17.3995329052       44.0186588171  TIP3      6027            0.0000000000
     35431      6163  TIP3      H2             16.4998958599       16.2260395458       43.1355328845  TIP3      6027            0.0000000000
     35432      6164  TIP3      OH2            11.3571068934       14.6932255819       44.6386948779  TIP3      6028            0.0000000000
     35433      6164  TIP3      H1             11.3594761325       14.4610659100       45.5883685957  TIP3      6028            0.0000000000
     35434      6164  TIP3      H2             11.6811135119       13.8863137380       44.1934569256  TIP3      6028            0.0000000000
     35435      6165  TIP3      OH2            12.6374012219       12.5117284637       43.5105142061  TIP3      6029            0.0000000000
     35436      6165  TIP3      H1             12.8480847988       11.6481555093       43.1269337804  TIP3      6029            0.0000000000
     35437      6165  TIP3      H2             13.5310737182       12.9324652643       43.5277627751  TIP3      6029            0.0000000000
     35438      6166  TIP3      OH2            21.2130208204       15.2904046704       42.8900291735  TIP3      6030            0.0000000000
     35439      6166  TIP3      H1             21.1867666779       15.4465625586       41.9369196308  TIP3      6030            0.0000000000
     35440      6166  TIP3      H2             20.7198882028       16.0728054765       43.2437941593  TIP3      6030            0.0000000000
     35441      6167  TIP3      OH2            11.7558475250       23.0024126255       44.5749815505  TIP3      6031            0.0000000000
     35442      6167  TIP3      H1             12.6440862620       22.6276309386       44.4207838647  TIP3      6031            0.0000000000
     35443      6167  TIP3      H2             11.7626970116       23.7636267579       43.9788187013  TIP3      6031            0.0000000000
     35444      6168  TIP3      OH2             5.9691725511       16.7727164259       43.8108120642  TIP3      6032            0.0000000000
     35445      6168  TIP3      H1              6.7855486008       17.3241832394       43.7972621052  TIP3      6032            0.0000000000
     35446      6168  TIP3      H2              5.6986513904       16.8852657639       42.8852175105  TIP3      6032            0.0000000000
     35447      6169  TIP3      OH2            22.7762223909       14.2987314267       45.1746972502  TIP3      6033            0.0000000000
     35448      6169  TIP3      H1             22.2606223883       14.4429656104       44.3583305547  TIP3      6033            0.0000000000
     35449      6169  TIP3      H2             23.3052707953       15.1127846252       45.2235668451  TIP3      6033            0.0000000000
     35450      6170  TIP3      OH2            21.8679335092       10.6314266676       43.4570740820  TIP3      6034            0.0000000000
     35451      6170  TIP3      H1             21.9094658315       11.1570825483       42.6482036903  TIP3      6034            0.0000000000
     35452      6170  TIP3      H2             21.7421304802        9.7486367710       43.0749822381  TIP3      6034            0.0000000000
     35453      6171  TIP3      OH2            20.4968374349        8.4073933137       42.2348628998  TIP3      6035            0.0000000000
     35454      6171  TIP3      H1             21.1334405202        7.9891572131       42.8458367168  TIP3      6035            0.0000000000
     35455      6171  TIP3      H2             19.7513860831        8.6622823067       42.7991591838  TIP3      6035            0.0000000000
     35456      6172  TIP3      OH2            22.9092711195        7.8356767186       43.6410542346  TIP3      6036            0.0000000000
     35457      6172  TIP3      H1             23.4080023999        7.0319243872       43.8618734663  TIP3      6036            0.0000000000
     35458      6172  TIP3      H2             23.4347168597        8.1639153768       42.8824884459  TIP3      6036            0.0000000000
     35459      6173  TIP3      OH2             5.6139195796        5.4281155264       44.8005680650  TIP3      6037            0.0000000000
     35460      6173  TIP3      H1              6.5764495579        5.4905942945       44.6765819263  TIP3      6037            0.0000000000
     35461      6173  TIP3      H2              5.5084708381        5.4807873510       45.7745383496  TIP3      6037            0.0000000000
     35462      6174  TIP3      OH2             8.3549189735        6.5306811441       43.8165825843  TIP3      6038            0.0000000000
     35463      6174  TIP3      H1              8.0232031365        5.8514480284       43.1886289934  TIP3      6038            0.0000000000
     35464      6174  TIP3      H2              8.4006423535        7.2704891210       43.1935791655  TIP3      6038            0.0000000000
     35465      6175  TIP3      OH2            14.4209387028       22.4768248812       44.5952061044  TIP3      6039            0.0000000000
     35466      6175  TIP3      H1             14.8331728563       23.1879105379       44.0827898903  TIP3      6039            0.0000000000
     35467      6175  TIP3      H2             14.8577662144       21.6963428490       44.1869627502  TIP3      6039            0.0000000000
     35468      6176  TIP3      OH2             7.8794017238       21.9963617409       43.5725519787  TIP3      6040            0.0000000000
     35469      6176  TIP3      H1              8.0174006377       21.9403643661       44.5389482588  TIP3      6040            0.0000000000
     35470      6176  TIP3      H2              7.8182861329       21.0656634828       43.3103084020  TIP3      6040            0.0000000000
     35471      6177  TIP3      OH2            31.0123745849        8.9959783631       43.2858551615  TIP3      6041            0.0000000000
     35472      6177  TIP3      H1             30.8405450108        8.2598552023       43.8996468669  TIP3      6041            0.0000000000
     35473      6177  TIP3      H2             30.5451605210        9.7462974611       43.7109396900  TIP3      6041            0.0000000000
     35474      6178  TIP3      OH2            29.4016893293       10.8422569495       44.3790201351  TIP3      6042            0.0000000000
     35475      6178  TIP3      H1             28.6474472026       10.6360324515       43.7739835710  TIP3      6042            0.0000000000
     35476      6178  TIP3      H2             29.7673696060       11.6402227062       43.9459327427  TIP3      6042            0.0000000000
     35477      6179  TIP3      OH2            25.4833896841       14.0156147620       43.7612607287  TIP3      6043            0.0000000000
     35478      6179  TIP3      H1             25.6919079893       13.7007592940       44.6705320258  TIP3      6043            0.0000000000
     35479      6179  TIP3      H2             24.5160285144       13.9728577996       43.7376364470  TIP3      6043            0.0000000000
     35480      6180  TIP3      OH2            32.0206277216       18.4433641111       42.9522590472  TIP3      6044            0.0000000000
     35481      6180  TIP3      H1             31.8357942781       17.8523110732       42.2051987914  TIP3      6044            0.0000000000
     35482      6180  TIP3      H2             31.2070431128       18.4028931763       43.4937889253  TIP3      6044            0.0000000000
     35483      6181  TIP3      OH2            30.4516062013       18.9360873167      -45.9221287095  TIP3      6045            0.0000000000
     35484      6181  TIP3      H1             30.5490924527       18.4028018961      -45.0983480146  TIP3      6045            0.0000000000
     35485      6181  TIP3      H2             31.2036571344       19.5448413897      -45.8645586440  TIP3      6045            0.0000000000
     35486      6182  TIP3      OH2            29.8030300285        7.1173264997      -45.8642302317  TIP3      6046            0.0000000000
     35487      6182  TIP3      H1             29.2693109845        7.9190747702      -45.8893418507  TIP3      6046            0.0000000000
     35488      6182  TIP3      H2             29.6805427169        6.8765986959      -44.9251757426  TIP3      6046            0.0000000000
     35489      6183  TIP3      OH2            27.7646825401       18.2059416050       44.3452292672  TIP3      6047            0.0000000000
     35490      6183  TIP3      H1             28.6164088214       18.5904646029       44.6161373636  TIP3      6047            0.0000000000
     35491      6183  TIP3      H2             28.0718950156       17.3711073984       43.9580392559  TIP3      6047            0.0000000000
     35492      6184  TIP3      OH2            26.9254430025       10.4843489088       43.2450172872  TIP3      6048            0.0000000000
     35493      6184  TIP3      H1             26.8620729703       11.0364378936       44.0471520159  TIP3      6048            0.0000000000
     35494      6184  TIP3      H2             26.0176074195       10.1436110140       43.2133131538  TIP3      6048            0.0000000000
     35495      6185  TIP3      OH2            29.2311508767       16.3342820378       43.0027057818  TIP3      6049            0.0000000000
     35496      6185  TIP3      H1             29.3056596693       15.7214796213       43.7742304462  TIP3      6049            0.0000000000
     35497      6185  TIP3      H2             29.9506235283       15.9844649656       42.4489198770  TIP3      6049            0.0000000000
     35498      6186  TIP3      OH2            29.5119544287       14.8366579125       45.0886437177  TIP3      6050            0.0000000000
     35499      6186  TIP3      H1             29.3330227314       14.6703754134       46.0360041877  TIP3      6050            0.0000000000
     35500      6186  TIP3      H2             30.0099678237       14.0363425714       44.8762856246  TIP3      6050            0.0000000000
     35501      6187  TIP3      OH2            31.2124539187       12.5078757236       42.9873967717  TIP3      6051            0.0000000000
     35502      6187  TIP3      H1             31.0193819362       11.9424177432       42.2120851600  TIP3      6051            0.0000000000
     35503      6187  TIP3      H2             31.9307940933       13.0750762770       42.6659297665  TIP3      6051            0.0000000000
     35504      6188  TIP3      OH2            31.7284688245       22.7996742943       44.0212167379  TIP3      6052            0.0000000000
     35505      6188  TIP3      H1             32.5815895595       23.2692693034       44.1899679161  TIP3      6052            0.0000000000
     35506      6188  TIP3      H2             31.2392533034       23.4805920781       43.5469542474  TIP3      6052            0.0000000000
     35507      6189  TIP3      OH2            24.7808321227       17.2907350289       44.2347104955  TIP3      6053            0.0000000000
     35508      6189  TIP3      H1             25.6822023151       17.6274775615       44.0884151325  TIP3      6053            0.0000000000
     35509      6189  TIP3      H2             24.5457011561       17.0385366830       43.3287715820  TIP3      6053            0.0000000000
     35510      6190  TIP3      OH2            24.3368858631        5.4149185826       45.1061635031  TIP3      6054            0.0000000000
     35511      6190  TIP3      H1             25.1287217627        5.7998145613       44.6759754139  TIP3      6054            0.0000000000
     35512      6190  TIP3      H2             24.6718031703        5.2785794074       46.0171447067  TIP3      6054            0.0000000000
     35513      6191  TIP3      OH2            26.5000297489        6.8308034904       43.7999234668  TIP3      6055            0.0000000000
     35514      6191  TIP3      H1             27.3512975270        6.5977858034       43.3948044478  TIP3      6055            0.0000000000
     35515      6191  TIP3      H2             26.5176773491        7.7965035809       43.7137064756  TIP3      6055            0.0000000000
     35516      6192  TIP3      OH2            26.4854540108       21.3674599954       43.5346193082  TIP3      6056            0.0000000000
     35517      6192  TIP3      H1             26.4890342340       22.0639223857       44.2212085529  TIP3      6056            0.0000000000
     35518      6192  TIP3      H2             27.4057771099       21.3567591024       43.2642200676  TIP3      6056            0.0000000000
     35519      6193  TIP3      OH2           -21.6286959719       31.2599992836       43.9350118357  TIP3      6057            0.0000000000
     35520      6193  TIP3      H1            -21.4275183428       31.8740068926       43.2041841116  TIP3      6057            0.0000000000
     35521      6193  TIP3      H2            -20.9269201178       30.5859489328       43.8526422925  TIP3      6057            0.0000000000
     35522      6194  TIP3      OH2           -16.6886714794       23.5402957815      -45.7964210271  TIP3      6058            0.0000000000
     35523      6194  TIP3      H1            -17.2545958126       23.9389630842      -45.1211130397  TIP3      6058            0.0000000000
     35524      6194  TIP3      H2            -15.8064030590       23.8679734803      -45.5410175638  TIP3      6058            0.0000000000
     35525      6195  TIP3      OH2           -18.5756685455       33.1058598001       43.2897501008  TIP3      6059            0.0000000000
     35526      6195  TIP3      H1            -18.0702946418       32.2879178714       43.4060777240  TIP3      6059            0.0000000000
     35527      6195  TIP3      H2            -18.4011682644       33.4921932607       44.1725234272  TIP3      6059            0.0000000000
     35528      6196  TIP3      OH2           -22.8100933386       27.0848210076       44.1994156564  TIP3      6060            0.0000000000
     35529      6196  TIP3      H1            -23.0346088159       26.6119926058       45.0295841791  TIP3      6060            0.0000000000
     35530      6196  TIP3      H2            -23.5753148007       26.8509177904       43.6406590192  TIP3      6060            0.0000000000
     35531      6197  TIP3      OH2           -25.4407867382       27.0506117888       43.0221065508  TIP3      6061            0.0000000000
     35532      6197  TIP3      H1            -25.7346803065       27.0826778943       43.9694253746  TIP3      6061            0.0000000000
     35533      6197  TIP3      H2            -25.5537977394       27.9740090293       42.7393383161  TIP3      6061            0.0000000000
     35534      6198  TIP3      OH2           -27.4450133092       29.7901524803       44.0633167105  TIP3      6062            0.0000000000
     35535      6198  TIP3      H1            -28.0244348789       29.7716734144       43.2868461767  TIP3      6062            0.0000000000
     35536      6198  TIP3      H2            -26.7803789736       30.4435848768       43.7891626988  TIP3      6062            0.0000000000
     35537      6199  TIP3      OH2           -20.3553697311       28.3426281789       44.0281342352  TIP3      6063            0.0000000000
     35538      6199  TIP3      H1            -21.2718700418       28.0468874644       44.2265214650  TIP3      6063            0.0000000000
     35539      6199  TIP3      H2            -19.8515739465       27.7338241064       44.5853479607  TIP3      6063            0.0000000000
     35540      6200  TIP3      OH2           -31.6811553391       31.9976345020       43.9226685018  TIP3      6064            0.0000000000
     35541      6200  TIP3      H1            -31.0254904734       32.5528028943       44.3609130522  TIP3      6064            0.0000000000
     35542      6200  TIP3      H2            -31.9909219131       32.6513264300       43.2614434525  TIP3      6064            0.0000000000
     35543      6201  TIP3      OH2           -26.4866170185       26.6241617167      -45.6871603059  TIP3      6065            0.0000000000
     35544      6201  TIP3      H1            -27.3645183339       26.6947919200      -46.0910239104  TIP3      6065            0.0000000000
     35545      6201  TIP3      H2            -26.7658942918       26.2026625097      -44.8541278590  TIP3      6065            0.0000000000
     35546      6202  TIP3      OH2           -30.1318559967       29.5612648128       43.0068258360  TIP3      6066            0.0000000000
     35547      6202  TIP3      H1            -30.2849514179       30.4433198335       43.3729389482  TIP3      6066            0.0000000000
     35548      6202  TIP3      H2            -30.2381342464       29.0236062703       43.8157942237  TIP3      6066            0.0000000000
     35549      6203  TIP3      OH2           -26.6284692134      -32.0943753649       44.3919056275  TIP3      6067            0.0000000000
     35550      6203  TIP3      H1            -26.6830927158      -32.5577754577       45.2570981818  TIP3      6067            0.0000000000
     35551      6203  TIP3      H2            -26.1437231337      -32.7405005294       43.8405574921  TIP3      6067            0.0000000000
     35552      6204  TIP3      OH2           -24.4659935627       30.5351434502       44.0233208538  TIP3      6068            0.0000000000
     35553      6204  TIP3      H1            -24.6825304573       30.9499444756       43.1761248183  TIP3      6068            0.0000000000
     35554      6204  TIP3      H2            -23.4928357704       30.5218199280       44.0173483806  TIP3      6068            0.0000000000
     35555      6205  TIP3      OH2           -14.3822039735       32.1292486302       44.4996562550  TIP3      6069            0.0000000000
     35556      6205  TIP3      H1            -15.2179545505       32.5033955808       44.1800327868  TIP3      6069            0.0000000000
     35557      6205  TIP3      H2            -14.5077419791       32.1085453435       45.4720979358  TIP3      6069            0.0000000000
     35558      6206  TIP3      OH2           -16.1890595681       29.9148475300       43.1149752416  TIP3      6070            0.0000000000
     35559      6206  TIP3      H1            -15.7248229698       30.2769410874       42.3396153180  TIP3      6070            0.0000000000
     35560      6206  TIP3      H2            -16.6189454086       29.1198009352       42.7414327305  TIP3      6070            0.0000000000
     35561      6207  TIP3      OH2           -16.9927135423       27.3599692999       42.5998531832  TIP3      6071            0.0000000000
     35562      6207  TIP3      H1            -16.1116707981       27.0251428016       42.8787070565  TIP3      6071            0.0000000000
     35563      6207  TIP3      H2            -17.5549743126       27.0439817151       43.3235180083  TIP3      6071            0.0000000000
     35564      6208  TIP3      OH2           -14.7530061283       26.1807580663       43.8689880338  TIP3      6072            0.0000000000
     35565      6208  TIP3      H1            -14.2573842034       25.3769288060       44.1480134090  TIP3      6072            0.0000000000
     35566      6208  TIP3      H2            -14.1854842082       26.4819976735       43.1315128081  TIP3      6072            0.0000000000
     35567      6209  TIP3      OH2           -32.6021078407       24.2333548395       44.9681067002  TIP3      6073            0.0000000000
     35568      6209  TIP3      H1            -31.7214341486       24.5199546156       44.6929927659  TIP3      6073            0.0000000000
     35569      6209  TIP3      H2            -32.5737200844       24.4103999975       45.9159322821  TIP3      6073            0.0000000000
     35570      6210  TIP3      OH2           -29.1104064070       25.2692662546       43.9678845502  TIP3      6074            0.0000000000
     35571      6210  TIP3      H1            -28.5041010962       24.6388231494       43.5462578928  TIP3      6074            0.0000000000
     35572      6210  TIP3      H2            -29.6047904441       25.5646601093       43.1895104784  TIP3      6074            0.0000000000
     35573      6211  TIP3      OH2            -3.1220250220       31.2103466836       43.5191782012  TIP3      6075            0.0000000000
     35574      6211  TIP3      H1             -3.1221207811       31.3009323590       44.4858390891  TIP3      6075            0.0000000000
     35575      6211  TIP3      H2             -2.1773496913       31.0856701373       43.3194003223  TIP3      6075            0.0000000000
     35576      6212  TIP3      OH2             2.3592130408       23.4089096233      -45.6150111172  TIP3      6076            0.0000000000
     35577      6212  TIP3      H1              1.4673187364       23.7291869503      -45.4275960390  TIP3      6076            0.0000000000
     35578      6212  TIP3      H2              2.9242292404       24.1859177006      -45.4360107530  TIP3      6076            0.0000000000
     35579      6213  TIP3      OH2            -0.2894879627       32.5930644831       43.8524204771  TIP3      6077            0.0000000000
     35580      6213  TIP3      H1              0.6833066515       32.6595713742       43.9129014437  TIP3      6077            0.0000000000
     35581      6213  TIP3      H2             -0.5233781263       33.3246275082       44.4248057019  TIP3      6077            0.0000000000
     35582      6214  TIP3      OH2            -4.0743651143       27.2687751734       44.4016509162  TIP3      6078            0.0000000000
     35583      6214  TIP3      H1             -4.3725205216       26.9157438326       45.2651311452  TIP3      6078            0.0000000000
     35584      6214  TIP3      H2             -4.2824939802       26.5306553426       43.8147232776  TIP3      6078            0.0000000000
     35585      6215  TIP3      OH2            -7.0487496489       27.7208160999       43.0092719156  TIP3      6079            0.0000000000
     35586      6215  TIP3      H1             -6.9549988854       27.3089123468       43.8958001129  TIP3      6079            0.0000000000
     35587      6215  TIP3      H2             -7.5414460111       28.5327862861       43.2390103053  TIP3      6079            0.0000000000
     35588      6216  TIP3      OH2            -8.5119514740       29.7878398811       43.9682354433  TIP3      6080            0.0000000000
     35589      6216  TIP3      H1             -9.3666067732       29.6808417425       43.5058065466  TIP3      6080            0.0000000000
     35590      6216  TIP3      H2             -8.1191799059       30.4892293252       43.4194065408  TIP3      6080            0.0000000000
     35591      6217  TIP3      OH2            -1.3924462525       27.9728811004       44.0041820944  TIP3      6081            0.0000000000
     35592      6217  TIP3      H1             -2.3526716443       27.8011419309       44.0892464864  TIP3      6081            0.0000000000
     35593      6217  TIP3      H2             -1.0194774119       27.4968771511       44.7518069947  TIP3      6081            0.0000000000
     35594      6218  TIP3      OH2           -11.4442933759       31.7497719381       43.6859402364  TIP3      6082            0.0000000000
     35595      6218  TIP3      H1            -10.9171179187       32.5399481048       43.8791188902  TIP3      6082            0.0000000000
     35596      6218  TIP3      H2            -12.3055365202       32.1515001859       43.4779461859  TIP3      6082            0.0000000000
     35597      6219  TIP3      OH2            -7.7386059386       26.5704360287      -45.6531868900  TIP3      6083            0.0000000000
     35598      6219  TIP3      H1             -8.5368456991       27.1006725378      -45.8002888055  TIP3      6083            0.0000000000
     35599      6219  TIP3      H2             -8.0109908204       26.0042514156      -44.9065180744  TIP3      6083            0.0000000000
     35600      6220  TIP3      OH2           -11.3716190525       29.0789516594       43.3284618724  TIP3      6084            0.0000000000
     35601      6220  TIP3      H1            -11.3508879569       30.0625425500       43.4155218931  TIP3      6084            0.0000000000
     35602      6220  TIP3      H2            -11.6106190768       28.8610732497       44.2552755382  TIP3      6084            0.0000000000
     35603      6221  TIP3      OH2            -8.4646936281      -32.8224001775       44.5185750496  TIP3      6085            0.0000000000
     35604      6221  TIP3      H1             -8.0597165032      -32.8316002712       45.4096386800  TIP3      6085            0.0000000000
     35605      6221  TIP3      H2             -7.8564560531      -33.3810024200       44.0119913145  TIP3      6085            0.0000000000
     35606      6222  TIP3      OH2            -6.1375991747       31.5195752436       43.0431530544  TIP3      6086            0.0000000000
     35607      6222  TIP3      H1             -6.2099851976       30.7787023802       42.4245722475  TIP3      6086            0.0000000000
     35608      6222  TIP3      H2             -5.1676878857       31.5538421807       43.1884896076  TIP3      6086            0.0000000000
     35609      6223  TIP3      OH2             4.4280102648       31.9361555873       44.2691423771  TIP3      6087            0.0000000000
     35610      6223  TIP3      H1              3.6669616325       32.5382537779       44.1952572657  TIP3      6087            0.0000000000
     35611      6223  TIP3      H2              4.1160722143       31.2942490941       44.9251942567  TIP3      6087            0.0000000000
     35612      6224  TIP3      OH2             2.6952147876       29.7699415216       43.2284615985  TIP3      6088            0.0000000000
     35613      6224  TIP3      H1              2.7999304295       30.3062644215       42.4284268155  TIP3      6088            0.0000000000
     35614      6224  TIP3      H2              2.3219507767       28.9545934684       42.8326725440  TIP3      6088            0.0000000000
     35615      6225  TIP3      OH2             1.8827331157       27.3242492978       42.3572696016  TIP3      6089            0.0000000000
     35616      6225  TIP3      H1              2.1589610823       26.9169948926       43.1886912154  TIP3      6089            0.0000000000
     35617      6225  TIP3      H2              0.9121582320       27.3484825808       42.4563136925  TIP3      6089            0.0000000000
     35618      6226  TIP3      OH2             4.5166027573       26.2368859052       44.0713754897  TIP3      6090            0.0000000000
     35619      6226  TIP3      H1              4.9008307590       25.3424220831       43.9855701834  TIP3      6090            0.0000000000
     35620      6226  TIP3      H2              4.9753202370       26.7019872522       43.3412146724  TIP3      6090            0.0000000000
     35621      6227  TIP3      OH2           -13.3610054749       23.8666253572       44.9144526191  TIP3      6091            0.0000000000
     35622      6227  TIP3      H1            -12.4462072215       24.1621855779       44.7437451208  TIP3      6091            0.0000000000
     35623      6227  TIP3      H2            -13.2675842806       23.4455640080       45.7877548378  TIP3      6091            0.0000000000
     35624      6228  TIP3      OH2           -10.9551229788       25.5568068208       43.7797912142  TIP3      6092            0.0000000000
     35625      6228  TIP3      H1            -10.2647955722       25.0830130845       43.2822032798  TIP3      6092            0.0000000000
     35626      6228  TIP3      H2            -10.8651604124       26.4489966772       43.4080207656  TIP3      6092            0.0000000000
     35627      6229  TIP3      OH2            15.5837269072       31.0291820045       43.8160896013  TIP3      6093            0.0000000000
     35628      6229  TIP3      H1             15.8372920442       30.8320641741       44.7334887902  TIP3      6093            0.0000000000
     35629      6229  TIP3      H2             16.4026907026       30.8700281637       43.3182269328  TIP3      6093            0.0000000000
     35630      6230  TIP3      OH2            21.1303285953       23.7568839686       45.2724882662  TIP3      6094            0.0000000000
     35631      6230  TIP3      H1             20.2008288214       23.6431818100       45.0165060272  TIP3      6094            0.0000000000
     35632      6230  TIP3      H2             21.2322172136       24.7194562281       45.3756999644  TIP3      6094            0.0000000000
     35633      6231  TIP3      OH2            18.6770484739       32.9311122274       43.9098028323  TIP3      6095            0.0000000000
     35634      6231  TIP3      H1             19.4409960227       33.0102184545       43.3096188160  TIP3      6095            0.0000000000
     35635      6231  TIP3      H2             19.1129144564       33.3047468098       44.6950140563  TIP3      6095            0.0000000000
     35636      6232  TIP3      OH2            14.5498585632       27.1645207489       44.2692694244  TIP3      6096            0.0000000000
     35637      6232  TIP3      H1             14.3386424049       26.5602840595       45.0136760113  TIP3      6096            0.0000000000
     35638      6232  TIP3      H2             13.7074493157       27.2093816039       43.7919512302  TIP3      6096            0.0000000000
     35639      6233  TIP3      OH2            11.7722879993       27.6558799889       43.2262667415  TIP3      6097            0.0000000000
     35640      6233  TIP3      H1             11.6903956998       27.0663710761       44.0152534658  TIP3      6097            0.0000000000
     35641      6233  TIP3      H2             11.0567702915       28.2940455253       43.4281318927  TIP3      6097            0.0000000000
     35642      6234  TIP3      OH2             9.9105142828       29.4049243329       44.3184463316  TIP3      6098            0.0000000000
     35643      6234  TIP3      H1              9.1192592273       29.2952016947       43.7424458733  TIP3      6098            0.0000000000
     35644      6234  TIP3      H2             10.3403772697       30.1482824344       43.8653956464  TIP3      6098            0.0000000000
     35645      6235  TIP3      OH2            17.1949070110       27.9994448621       43.9928679992  TIP3      6099            0.0000000000
     35646      6235  TIP3      H1             16.2429668019       27.7588534012       44.1038175734  TIP3      6099            0.0000000000
     35647      6235  TIP3      H2             17.6033772776       27.5620903356       44.7568432173  TIP3      6099            0.0000000000
     35648      6236  TIP3      OH2             7.4330602887       31.6904640352       43.5641193182  TIP3      6100            0.0000000000
     35649      6236  TIP3      H1              7.9106198926       32.3846111859       44.0480307515  TIP3      6100            0.0000000000
     35650      6236  TIP3      H2              6.5780351210       32.1325286352       43.4086969754  TIP3      6100            0.0000000000
     35651      6237  TIP3      OH2            11.1239590861       26.4073196849      -45.6165917118  TIP3      6101            0.0000000000
     35652      6237  TIP3      H1             10.8252765738       27.3039446464      -45.3754719731  TIP3      6101            0.0000000000
     35653      6237  TIP3      H2             10.6745385056       25.8911651707      -44.9145448185  TIP3      6101            0.0000000000
     35654      6238  TIP3      OH2             7.5598293632       29.1127114371       43.1078879748  TIP3      6102            0.0000000000
     35655      6238  TIP3      H1              7.5108582933       30.0887069797       43.2648199244  TIP3      6102            0.0000000000
     35656      6238  TIP3      H2              7.0950170062       28.8109924300       43.9178548714  TIP3      6102            0.0000000000
     35657      6239  TIP3      OH2            10.5175953427      -32.7784292248       44.6790689573  TIP3      6103            0.0000000000
     35658      6239  TIP3      H1             10.5501192647      -32.8473973310       45.6595979554  TIP3      6103            0.0000000000
     35659      6239  TIP3      H2             11.3168763466      -33.2716288655       44.4521698712  TIP3      6103            0.0000000000
     35660      6240  TIP3      OH2            12.8200980145       31.3322819066       43.3948959266  TIP3      6104            0.0000000000
     35661      6240  TIP3      H1             12.7664217782       30.4894400108       42.9269628846  TIP3      6104            0.0000000000
     35662      6240  TIP3      H2             13.7894928910       31.3836741758       43.5685408643  TIP3      6104            0.0000000000
     35663      6241  TIP3      OH2            23.0922086291       31.8361093374       44.3031900773  TIP3      6105            0.0000000000
     35664      6241  TIP3      H1             22.3869804839       32.5002323979       44.4232343754  TIP3      6105            0.0000000000
     35665      6241  TIP3      H2             23.2651544641       31.5669477128       45.2317218800  TIP3      6105            0.0000000000
     35666      6242  TIP3      OH2            21.2118350236       30.0515293992       43.1564607390  TIP3      6106            0.0000000000
     35667      6242  TIP3      H1             22.1050521310       30.4321661301       43.0781700259  TIP3      6106            0.0000000000
     35668      6242  TIP3      H2             21.3513842080       29.1113089066       42.8958786052  TIP3      6106            0.0000000000
     35669      6243  TIP3      OH2            20.8637600754       27.4571923901       42.7886512981  TIP3      6107            0.0000000000
     35670      6243  TIP3      H1             21.4637015144       26.7701115684       43.1665977743  TIP3      6107            0.0000000000
     35671      6243  TIP3      H2             19.9818229191       27.2171928295       43.0928901270  TIP3      6107            0.0000000000
     35672      6244  TIP3      OH2            23.0008434329       26.2342721197       43.9347573453  TIP3      6108            0.0000000000
     35673      6244  TIP3      H1             22.8414665093       25.3212601238       43.6208460892  TIP3      6108            0.0000000000
     35674      6244  TIP3      H2             23.9721113909       26.2341970393       43.9131877876  TIP3      6108            0.0000000000
     35675      6245  TIP3      OH2             5.8048962868       23.6758426993       44.9406253554  TIP3      6109            0.0000000000
     35676      6245  TIP3      H1              6.6371991208       23.6302024824       44.4275504299  TIP3      6109            0.0000000000
     35677      6245  TIP3      H2              6.1465491354       23.8020281044       45.8528288701  TIP3      6109            0.0000000000
     35678      6246  TIP3      OH2             7.8758671495       25.1214518871       43.7920419300  TIP3      6110            0.0000000000
     35679      6246  TIP3      H1              8.1777285642       24.6835675046       42.9763434152  TIP3      6110            0.0000000000
     35680      6246  TIP3      H2              8.0507327780       26.0543512760       43.5826601275  TIP3      6110            0.0000000000
     35681      6247  TIP3      OH2            30.5472859382       27.6027112693       43.6642954209  TIP3      6111            0.0000000000
     35682      6247  TIP3      H1             30.2330153425       26.9895842285       44.3588173875  TIP3      6111            0.0000000000
     35683      6247  TIP3      H2             30.1064405887       28.4370438905       43.9126656195  TIP3      6111            0.0000000000
     35684      6248  TIP3      OH2            29.4089918724       29.9283313684       44.0226382128  TIP3      6112            0.0000000000
     35685      6248  TIP3      H1             28.5713712492       29.7744017444       43.5369937121  TIP3      6112            0.0000000000
     35686      6248  TIP3      H2             29.8193503172       30.5439753061       43.3878999935  TIP3      6112            0.0000000000
     35687      6249  TIP3      OH2            25.7627071298       31.5894854940       43.5800277769  TIP3      6113            0.0000000000
     35688      6249  TIP3      H1             26.1888016686       32.3529323998       43.9981994167  TIP3      6113            0.0000000000
     35689      6249  TIP3      H2             24.8058256445       31.7353764489       43.7248775346  TIP3      6113            0.0000000000
     35690      6250  TIP3      OH2            29.3367452032       26.2082233910      -45.4389008868  TIP3      6114            0.0000000000
     35691      6250  TIP3      H1             29.3608957124       26.8641602927      -44.7237203523  TIP3      6114            0.0000000000
     35692      6250  TIP3      H2             29.4363179145       25.3916861756      -44.9247486884  TIP3      6114            0.0000000000
     35693      6251  TIP3      OH2            26.6061503653       29.0376374566       43.5147826469  TIP3      6115            0.0000000000
     35694      6251  TIP3      H1             26.4846708822       29.9977191498       43.7096162646  TIP3      6115            0.0000000000
     35695      6251  TIP3      H2             25.7686822498       28.6704632337       43.8199128585  TIP3      6115            0.0000000000
     35696      6252  TIP3      OH2            30.2062663064       33.3148720064       45.5041964916  TIP3      6116            0.0000000000
     35697      6252  TIP3      H1             29.4623855556       32.7436845100       45.7231048221  TIP3      6116            0.0000000000
     35698      6252  TIP3      H2             30.5836612803       32.8942048992       44.7156711480  TIP3      6116            0.0000000000
     35699      6253  TIP3      OH2            31.6898717860       31.7790441622       42.7353937096  TIP3      6117            0.0000000000
     35700      6253  TIP3      H1             31.7430447381       31.0463920881       42.1047445889  TIP3      6117            0.0000000000
     35701      6253  TIP3      H2             32.5889212986       31.8506490097       43.0992737319  TIP3      6117            0.0000000000
     35702      6254  TIP3      OH2            24.9438783042       24.0966246673      -45.7570536418  TIP3      6118            0.0000000000
     35703      6254  TIP3      H1             25.7500958799       24.4220074690      -46.2070756898  TIP3      6118            0.0000000000
     35704      6254  TIP3      H2             25.1933204725       24.2123268593      -44.8330728721  TIP3      6118            0.0000000000
     35705      6255  TIP3      OH2            27.0817751052       25.5018379463       43.9938005948  TIP3      6119            0.0000000000
     35706      6255  TIP3      H1             27.6430859809       25.5408400300       43.2038072062  TIP3      6119            0.0000000000
     35707      6255  TIP3      H2             27.6652232069       25.8795024808       44.6756269083  TIP3      6119            0.0000000000
     35708      6256  TIP3      OH2           -22.4242958704      -26.5644077763      -44.1269176791  TIP3      6120            0.0000000000
     35709      6256  TIP3      H1            -21.6720237513      -25.9557152320      -43.9269929547  TIP3      6120            0.0000000000
     35710      6256  TIP3      H2            -22.3102942807      -26.7360204041      -45.0763416878  TIP3      6120            0.0000000000
     35711      6257  TIP3      OH2           -20.4578841638      -24.7520122201      -43.6924565682  TIP3      6121            0.0000000000
     35712      6257  TIP3      H1            -20.8091688000      -24.1002032459      -43.0651011928  TIP3      6121            0.0000000000
     35713      6257  TIP3      H2            -19.6825850888      -24.3269230217      -44.0815054572  TIP3      6121            0.0000000000
     35714      6258  TIP3      OH2           -16.4836431743      -32.6054105613      -43.0557905013  TIP3      6122            0.0000000000
     35715      6258  TIP3      H1            -17.0238070701      -31.9102362756      -42.6601529550  TIP3      6122            0.0000000000
     35716      6258  TIP3      H2            -15.6940005322      -32.0763535512      -43.2794407930  TIP3      6122            0.0000000000
     35717      6259  TIP3      OH2           -15.5420286438      -18.7434941475      -44.0617896125  TIP3      6123            0.0000000000
     35718      6259  TIP3      H1            -15.4941748639      -17.7736221936      -43.9480813746  TIP3      6123            0.0000000000
     35719      6259  TIP3      H2            -14.6567789010      -18.9204446545      -44.4095922740  TIP3      6123            0.0000000000
     35720      6260  TIP3      OH2           -19.3277893012      -16.4853039082      -44.4451721278  TIP3      6124            0.0000000000
     35721      6260  TIP3      H1            -19.2361636779      -17.4224957956      -44.6552414290  TIP3      6124            0.0000000000
     35722      6260  TIP3      H2            -18.7556970905      -16.4731996747      -43.6579096765  TIP3      6124            0.0000000000
     35723      6261  TIP3      OH2           -23.9719976237      -30.3026140201      -44.3156854127  TIP3      6125            0.0000000000
     35724      6261  TIP3      H1            -23.8709788332      -29.4607325165      -43.8445703862  TIP3      6125            0.0000000000
     35725      6261  TIP3      H2            -23.8398314296      -30.9652011137      -43.6314014380  TIP3      6125            0.0000000000
     35726      6262  TIP3      OH2           -31.7606879499      -29.4972963173      -43.3549914798  TIP3      6126            0.0000000000
     35727      6262  TIP3      H1            -31.1040673698      -28.8108595471      -43.5319653263  TIP3      6126            0.0000000000
     35728      6262  TIP3      H2            -32.5436049949      -29.1244642005      -43.7942201977  TIP3      6126            0.0000000000
     35729      6263  TIP3      OH2           -27.2149743330      -26.5911684135      -43.7985025682  TIP3      6127            0.0000000000
     35730      6263  TIP3      H1            -27.5521770799      -26.7204128570      -44.7095914859  TIP3      6127            0.0000000000
     35731      6263  TIP3      H2            -26.2896767086      -26.3630886553      -44.0068376002  TIP3      6127            0.0000000000
     35732      6264  TIP3      OH2           -20.4739933483      -28.5290519536      -43.1030002553  TIP3      6128            0.0000000000
     35733      6264  TIP3      H1            -21.3808410981      -28.2020485541      -43.1929463748  TIP3      6128            0.0000000000
     35734      6264  TIP3      H2            -19.9576163694      -27.8603343620      -43.5662816235  TIP3      6128            0.0000000000
     35735      6265  TIP3      OH2           -22.0338792792      -20.7521807401      -42.6312851738  TIP3      6129            0.0000000000
     35736      6265  TIP3      H1            -22.6434482296      -19.9978305615      -42.6632083940  TIP3      6129            0.0000000000
     35737      6265  TIP3      H2            -22.3542683999      -21.2265906842      -41.8434070422  TIP3      6129            0.0000000000
     35738      6266  TIP3      OH2           -32.2844108477      -23.7938428163      -43.5611275713  TIP3      6130            0.0000000000
     35739      6266  TIP3      H1            -31.3413087286      -23.6464549502      -43.3378785683  TIP3      6130            0.0000000000
     35740      6266  TIP3      H2            -32.6386943539      -22.9177555176      -43.3517316737  TIP3      6130            0.0000000000
     35741      6267  TIP3      OH2           -19.2759522626      -20.9987627801      -44.3991732768  TIP3      6131            0.0000000000
     35742      6267  TIP3      H1            -19.4548788142      -20.3886768592      -43.6694579277  TIP3      6131            0.0000000000
     35743      6267  TIP3      H2            -20.1872097895      -21.1356912396      -44.7174674801  TIP3      6131            0.0000000000
     35744      6268  TIP3      OH2           -15.0122918652      -16.0820398797      -43.4211696285  TIP3      6132            0.0000000000
     35745      6268  TIP3      H1            -14.4172201033      -15.4069213578      -43.7741984747  TIP3      6132            0.0000000000
     35746      6268  TIP3      H2            -15.2546109946      -15.6911961645      -42.5569377270  TIP3      6132            0.0000000000
     35747      6269  TIP3      OH2           -25.0301679865      -19.7833850627      -43.2095534196  TIP3      6133            0.0000000000
     35748      6269  TIP3      H1            -25.6732212901      -20.4975961031      -42.9914257150  TIP3      6133            0.0000000000
     35749      6269  TIP3      H2            -25.4261016928      -19.0751737460      -42.6527608452  TIP3      6133            0.0000000000
     35750      6270  TIP3      OH2           -29.7723743940      -22.6543222591      -42.9976795645  TIP3      6134            0.0000000000
     35751      6270  TIP3      H1            -30.2311842714      -21.9284508402      -42.5184767075  TIP3      6134            0.0000000000
     35752      6270  TIP3      H2            -28.9146928000      -22.2541685579      -43.2024737794  TIP3      6134            0.0000000000
     35753      6271  TIP3      OH2           -23.5792194933      -17.1963614959      -42.1501412140  TIP3      6135            0.0000000000
     35754      6271  TIP3      H1            -24.4785426351      -17.3287813889      -42.4971587688  TIP3      6135            0.0000000000
     35755      6271  TIP3      H2            -23.0679252597      -16.9627566183      -42.9458998726  TIP3      6135            0.0000000000
     35756      6272  TIP3      OH2           -26.3208607915      -17.5547086086      -42.5365579314  TIP3      6136            0.0000000000
     35757      6272  TIP3      H1            -26.3922035645      -16.9290313145      -43.2747456869  TIP3      6136            0.0000000000
     35758      6272  TIP3      H2            -26.4770101302      -16.9679289545      -41.7716918393  TIP3      6136            0.0000000000
     35759      6273  TIP3      OH2           -28.0647556593      -30.2772020879      -43.2754528908  TIP3      6137            0.0000000000
     35760      6273  TIP3      H1            -28.3591092426      -29.4907444229      -42.7949408887  TIP3      6137            0.0000000000
     35761      6273  TIP3      H2            -27.1406617985      -30.2967116000      -42.9425247998  TIP3      6137            0.0000000000
     35762      6274  TIP3      OH2           -28.5533456284      -19.6335636496      -44.4824599883  TIP3      6138            0.0000000000
     35763      6274  TIP3      H1            -28.4744861347      -18.8469397562      -43.9316523802  TIP3      6138            0.0000000000
     35764      6274  TIP3      H2            -27.6623626042      -19.6341468646      -44.8925591865  TIP3      6138            0.0000000000
     35765      6275  TIP3      OH2           -30.6154120486      -26.7367562675      -44.7382590001  TIP3      6139            0.0000000000
     35766      6275  TIP3      H1            -31.0438608804      -25.9183828888      -45.0459220988  TIP3      6139            0.0000000000
     35767      6275  TIP3      H2            -29.8857467538      -26.7852508039      -45.3767157379  TIP3      6139            0.0000000000
     35768      6276  TIP3      OH2           -26.5430248502      -23.7121236239      -43.7041205642  TIP3      6140            0.0000000000
     35769      6276  TIP3      H1            -27.1611180837      -24.4527828175      -43.5345601047  TIP3      6140            0.0000000000
     35770      6276  TIP3      H2            -25.7450853078      -24.1860502473      -44.0298116206  TIP3      6140            0.0000000000
     35771      6277  TIP3      OH2           -24.8424823223      -25.5694560997      -44.7845099725  TIP3      6141            0.0000000000
     35772      6277  TIP3      H1            -24.9655568210      -25.9800106596      -45.6608640948  TIP3      6141            0.0000000000
     35773      6277  TIP3      H2            -23.9259658733      -25.8563167977      -44.5556792125  TIP3      6141            0.0000000000
     35774      6278  TIP3      OH2           -25.0140562610      -14.8502829861      -43.5341921224  TIP3      6142            0.0000000000
     35775      6278  TIP3      H1            -24.0546838470      -14.9473639035      -43.6852733121  TIP3      6142            0.0000000000
     35776      6278  TIP3      H2            -25.3458174751      -14.8639876960      -44.4623411329  TIP3      6142            0.0000000000
     35777      6279  TIP3      OH2           -31.4010976934      -20.6925454703      -44.3376317730  TIP3      6143            0.0000000000
     35778      6279  TIP3      H1            -30.4617708913      -20.4768606203      -44.2456401325  TIP3      6143            0.0000000000
     35779      6279  TIP3      H2            -31.4095860111      -20.9974516387      -45.2605089739  TIP3      6143            0.0000000000
     35780      6280  TIP3      OH2           -14.4713502561      -25.0903591337      -43.3656236892  TIP3      6144            0.0000000000
     35781      6280  TIP3      H1            -14.7023712558      -25.0880869252      -44.3169462944  TIP3      6144            0.0000000000
     35782      6280  TIP3      H2            -14.7966259220      -24.2170586133      -43.0815358065  TIP3      6144            0.0000000000
     35783      6281  TIP3      OH2           -16.4800824091      -26.8717582705      -44.8418144782  TIP3      6145            0.0000000000
     35784      6281  TIP3      H1            -16.2081107637      -26.6354157754      -45.7551177487  TIP3      6145            0.0000000000
     35785      6281  TIP3      H2            -16.5233730095      -27.8252494401      -44.9288057004  TIP3      6145            0.0000000000
     35786      6282  TIP3      OH2           -15.0634603305      -30.7393498748      -44.4580250542  TIP3      6146            0.0000000000
     35787      6282  TIP3      H1            -14.4193262508      -31.1459345017      -45.0788592362  TIP3      6146            0.0000000000
     35788      6282  TIP3      H2            -14.5045863971      -30.0022241719      -44.1270744765  TIP3      6146            0.0000000000
     35789      6283  TIP3      OH2           -32.0341081492      -32.3649552776      -43.3679654009  TIP3      6147            0.0000000000
     35790      6283  TIP3      H1            -31.1968727655      -32.1776802425      -43.8513151278  TIP3      6147            0.0000000000
     35791      6283  TIP3      H2            -32.0725878085      -31.5531124011      -42.8324699233  TIP3      6147            0.0000000000
     35792      6284  TIP3      OH2           -29.7893343036      -31.9278760611      -44.7423650240  TIP3      6148            0.0000000000
     35793      6284  TIP3      H1            -29.4308528197      -31.6715412295      -45.6213777384  TIP3      6148            0.0000000000
     35794      6284  TIP3      H2            -29.2422513389      -31.3223702001      -44.2022032782  TIP3      6148            0.0000000000
     35795      6285  TIP3      OH2           -22.0340571769      -15.6956472345      -44.0762883899  TIP3      6149            0.0000000000
     35796      6285  TIP3      H1            -21.0620631862      -15.7921076110      -44.0517138770  TIP3      6149            0.0000000000
     35797      6285  TIP3      H2            -22.1806639201      -15.4670794172      -45.0211520705  TIP3      6149            0.0000000000
     35798      6286  TIP3      OH2           -29.2144187551      -16.1697629725      -44.6789255517  TIP3      6150            0.0000000000
     35799      6286  TIP3      H1            -29.6352433410      -15.3075191441      -44.8644091657  TIP3      6150            0.0000000000
     35800      6286  TIP3      H2            -29.0131184055      -16.0489923118      -43.7347912352  TIP3      6150            0.0000000000
     35801      6287  TIP3      OH2            -3.6346258918      -26.4270796453      -44.3010022579  TIP3      6151            0.0000000000
     35802      6287  TIP3      H1             -2.8820229484      -25.8435963840      -44.0478547355  TIP3      6151            0.0000000000
     35803      6287  TIP3      H2             -3.3946365659      -26.6361019132      -45.2111979071  TIP3      6151            0.0000000000
     35804      6288  TIP3      OH2            -1.6394143530      -24.7581710990      -43.8234954679  TIP3      6152            0.0000000000
     35805      6288  TIP3      H1             -1.8397024258      -24.2772099356      -43.0065968671  TIP3      6152            0.0000000000
     35806      6288  TIP3      H2             -0.9692141590      -24.2292646192      -44.2868345038  TIP3      6152            0.0000000000
     35807      6289  TIP3      OH2             2.0663150988      -32.4528883545      -43.1229800008  TIP3      6153            0.0000000000
     35808      6289  TIP3      H1              1.4259411028      -31.7487909589      -42.9676470114  TIP3      6153            0.0000000000
     35809      6289  TIP3      H2              2.8584389584      -31.9288616968      -43.3695034777  TIP3      6153            0.0000000000
     35810      6290  TIP3      OH2             3.0251609254      -18.6550310787      -44.1861234058  TIP3      6154            0.0000000000
     35811      6290  TIP3      H1              3.2098865665      -17.7104039844      -43.9794551225  TIP3      6154            0.0000000000
     35812      6290  TIP3      H2              3.8797699028      -18.9134886997      -44.5531834854  TIP3      6154            0.0000000000
     35813      6291  TIP3      OH2            -0.4794072633      -16.3162808302      -44.1635079691  TIP3      6155            0.0000000000
     35814      6291  TIP3      H1              0.0603204464      -17.1076654434      -44.3187196981  TIP3      6155            0.0000000000
     35815      6291  TIP3      H2             -0.4759772599      -16.3376138866      -43.1853610473  TIP3      6155            0.0000000000
     35816      6292  TIP3      OH2            -4.0107231164      -30.2676209967      -44.0206502187  TIP3      6156            0.0000000000
     35817      6292  TIP3      H1             -4.9067870838      -30.3450279517      -43.6618721500  TIP3      6156            0.0000000000
     35818      6292  TIP3      H2             -3.9616425952      -31.0130020119      -44.6331154943  TIP3      6156            0.0000000000
     35819      6293  TIP3      OH2           -12.9738344241      -29.2395538818      -43.3046720321  TIP3      6157            0.0000000000
     35820      6293  TIP3      H1            -12.5140615646      -28.7296729910      -43.9961139857  TIP3      6157            0.0000000000
     35821      6293  TIP3      H2            -12.8559664654      -28.6173487488      -42.5663249209  TIP3      6157            0.0000000000
     35822      6294  TIP3      OH2            -8.6662934527      -26.4839077189      -43.9751412470  TIP3      6158            0.0000000000
     35823      6294  TIP3      H1             -9.3654677831      -26.4436157806      -44.6515713789  TIP3      6158            0.0000000000
     35824      6294  TIP3      H2             -7.8668790988      -26.3703590147      -44.5253296341  TIP3      6158            0.0000000000
     35825      6295  TIP3      OH2            -1.5507410400      -28.9224209367      -43.0332374540  TIP3      6159            0.0000000000
     35826      6295  TIP3      H1             -2.4718911256      -29.0656557012      -43.3223441283  TIP3      6159            0.0000000000
     35827      6295  TIP3      H2             -1.4071242235      -27.9940392768      -43.2395884913  TIP3      6159            0.0000000000
     35828      6296  TIP3      OH2            -3.1463984558      -20.7910482453      -42.7945449834  TIP3      6160            0.0000000000
     35829      6296  TIP3      H1             -3.5815251403      -19.9376278288      -42.6022727622  TIP3      6160            0.0000000000
     35830      6296  TIP3      H2             -3.5659815209      -21.3933710505      -42.1538015140  TIP3      6160            0.0000000000
     35831      6297  TIP3      OH2           -11.0497066126      -24.4961331956      -44.9180571760  TIP3      6161            0.0000000000
     35832      6297  TIP3      H1            -10.6976595193      -23.6862773781      -44.4717944608  TIP3      6161            0.0000000000
     35833      6297  TIP3      H2            -11.8529679995      -24.5962291198      -44.3843168750  TIP3      6161            0.0000000000
     35834      6298  TIP3      OH2            -0.4306056773      -21.1811904224      -44.1774187050  TIP3      6162            0.0000000000
     35835      6298  TIP3      H1             -0.6057735411      -20.5846527844      -43.4331970863  TIP3      6162            0.0000000000
     35836      6298  TIP3      H2             -1.3362220938      -21.2889016808      -44.5147493452  TIP3      6162            0.0000000000
     35837      6299  TIP3      OH2             3.8401158683      -16.0516972492      -43.6736862001  TIP3      6163            0.0000000000
     35838      6299  TIP3      H1              4.4804328563      -15.6194706078      -44.2549700161  TIP3      6163            0.0000000000
     35839      6299  TIP3      H2              3.5149293507      -15.2906497472      -43.1594761819  TIP3      6163            0.0000000000
     35840      6300  TIP3      OH2            -6.8248785785      -19.7170934948      -43.1433792019  TIP3      6164            0.0000000000
     35841      6300  TIP3      H1             -6.6251697961      -19.7305127397      -42.1981788293  TIP3      6164            0.0000000000
     35842      6300  TIP3      H2             -6.8815832793      -18.7490134395      -43.2813438837  TIP3      6164            0.0000000000
     35843      6301  TIP3      OH2           -10.8796631003      -22.3280470765      -43.4335003278  TIP3      6165            0.0000000000
     35844      6301  TIP3      H1            -11.4885822588      -22.4106597035      -42.6729833138  TIP3      6165            0.0000000000
     35845      6301  TIP3      H2            -10.0159688558      -22.2374517436      -42.9788365668  TIP3      6165            0.0000000000
     35846      6302  TIP3      OH2            -4.7378794699      -17.6500063425      -42.4832174755  TIP3      6166            0.0000000000
     35847      6302  TIP3      H1             -5.6252352930      -17.3105180400      -42.7073249172  TIP3      6166            0.0000000000
     35848      6302  TIP3      H2             -4.1627524474      -17.1564329055      -43.0919409649  TIP3      6166            0.0000000000
     35849      6303  TIP3      OH2            -7.3206634565      -17.0211149449      -42.9213718418  TIP3      6167            0.0000000000
     35850      6303  TIP3      H1             -7.9419535594      -16.3802095861      -43.3068972687  TIP3      6167            0.0000000000
     35851      6303  TIP3      H2             -7.5072768739      -16.8935041438      -41.9749393464  TIP3      6167            0.0000000000
     35852      6304  TIP3      OH2            -9.2452443582      -30.3628572570      -43.4124575644  TIP3      6168            0.0000000000
     35853      6304  TIP3      H1             -8.9542994310      -29.5972691298      -42.8651003314  TIP3      6168            0.0000000000
     35854      6304  TIP3      H2             -8.3960872598      -30.8309606074      -43.4291602561  TIP3      6168            0.0000000000
     35855      6305  TIP3      OH2           -10.0664923337      -19.4007250046      -44.5766962302  TIP3      6169            0.0000000000
     35856      6305  TIP3      H1            -10.0573976600      -19.5261167286      -43.6160617581  TIP3      6169            0.0000000000
     35857      6305  TIP3      H2             -9.2070527743      -19.7813656155      -44.8237857913  TIP3      6169            0.0000000000
     35858      6306  TIP3      OH2           -12.4394871107      -27.0564654532      -44.9718876046  TIP3      6170            0.0000000000
     35859      6306  TIP3      H1            -11.9162510090      -26.2422701976      -44.9462205627  TIP3      6170            0.0000000000
     35860      6306  TIP3      H2            -13.3349420543      -26.7324129271      -45.1661294626  TIP3      6170            0.0000000000
     35861      6307  TIP3      OH2            -7.5765921779      -23.8229722389      -43.5937554738  TIP3      6171            0.0000000000
     35862      6307  TIP3      H1             -8.1264061517      -24.6242638448      -43.4719387603  TIP3      6171            0.0000000000
     35863      6307  TIP3      H2             -6.8306273001      -24.1835140662      -44.1116681884  TIP3      6171            0.0000000000
     35864      6308  TIP3      OH2            -6.1228392438      -25.5904190372      -45.0320404304  TIP3      6172            0.0000000000
     35865      6308  TIP3      H1             -6.0515776157      -25.5583714571      -46.0043334740  TIP3      6172            0.0000000000
     35866      6308  TIP3      H2             -5.2343779549      -25.9270091264      -44.7579435659  TIP3      6172            0.0000000000
     35867      6309  TIP3      OH2            -6.0569061109      -14.3420248451      -43.8066270728  TIP3      6173            0.0000000000
     35868      6309  TIP3      H1             -5.2169547218      -14.8001597239      -43.9716446180  TIP3      6173            0.0000000000
     35869      6309  TIP3      H2             -6.4725730907      -14.4424241589      -44.6848254815  TIP3      6173            0.0000000000
     35870      6310  TIP3      OH2           -12.7281170297      -19.9868467432      -44.3172709408  TIP3      6174            0.0000000000
     35871      6310  TIP3      H1            -11.7571178058      -20.0088129167      -44.3978648054  TIP3      6174            0.0000000000
     35872      6310  TIP3      H2            -12.9318312813      -20.3277538553      -45.2088016417  TIP3      6174            0.0000000000
     35873      6311  TIP3      OH2             4.2012186444      -24.8888449051      -43.1630231381  TIP3      6175            0.0000000000
     35874      6311  TIP3      H1              4.0211777031      -24.9563673292      -44.1193644257  TIP3      6175            0.0000000000
     35875      6311  TIP3      H2              4.1417787766      -23.9294657586      -43.0005519696  TIP3      6175            0.0000000000
     35876      6312  TIP3      OH2             2.3541615811      -26.8457139805      -44.8933129836  TIP3      6176            0.0000000000
     35877      6312  TIP3      H1              2.7115415976      -26.5943662309      -45.7692134961  TIP3      6176            0.0000000000
     35878      6312  TIP3      H2              2.4822311899      -27.7970975739      -44.8717531660  TIP3      6176            0.0000000000
     35879      6313  TIP3      OH2             3.6830164278      -30.6277772141      -44.4723234597  TIP3      6177            0.0000000000
     35880      6313  TIP3      H1              4.4177787721      -31.0529056653      -44.9726458110  TIP3      6177            0.0000000000
     35881      6313  TIP3      H2              4.1642169468      -29.8411957772      -44.1542322437  TIP3      6177            0.0000000000
     35882      6314  TIP3      OH2           -13.0890737853      -32.3792411182      -42.7600028932  TIP3      6178            0.0000000000
     35883      6314  TIP3      H1            -12.1615446273      -32.2486067908      -42.5067562893  TIP3      6178            0.0000000000
     35884      6314  TIP3      H2            -13.3271565297      -31.4896398591      -43.0576756044  TIP3      6178            0.0000000000
     35885      6315  TIP3      OH2           -10.6404405904      -32.4688283554      -44.5828412355  TIP3      6179            0.0000000000
     35886      6315  TIP3      H1            -10.2772156035      -32.3563020575      -45.4859492441  TIP3      6179            0.0000000000
     35887      6315  TIP3      H2            -10.3640717976      -31.6126449774      -44.1936065397  TIP3      6179            0.0000000000
     35888      6316  TIP3      OH2            -3.3356360295      -15.8975731458      -44.0621627559  TIP3      6180            0.0000000000
     35889      6316  TIP3      H1             -2.3924154766      -15.6658083130      -43.9751124497  TIP3      6180            0.0000000000
     35890      6316  TIP3      H2             -3.3608518987      -16.3491654946      -44.9259466135  TIP3      6180            0.0000000000
     35891      6317  TIP3      OH2           -10.6975294528      -15.4056583450      -44.6970306352  TIP3      6181            0.0000000000
     35892      6317  TIP3      H1            -11.1018916950      -15.1359418047      -43.8516406172  TIP3      6181            0.0000000000
     35893      6317  TIP3      H2            -10.9650515554      -16.3272717330      -44.7689362311  TIP3      6181            0.0000000000
     35894      6318  TIP3      OH2            15.3243191864      -26.1109405587      -44.0876153143  TIP3      6182            0.0000000000
     35895      6318  TIP3      H1             16.1409264959      -25.5875709512      -43.9218950559  TIP3      6182            0.0000000000
     35896      6318  TIP3      H2             15.5192940872      -26.4976602731      -44.9527161050  TIP3      6182            0.0000000000
     35897      6319  TIP3      OH2            17.5130886291      -24.4897314265      -43.6629407503  TIP3      6183            0.0000000000
     35898      6319  TIP3      H1             17.4002597600      -23.8661650268      -42.9302826285  TIP3      6183            0.0000000000
     35899      6319  TIP3      H2             18.2506515199      -24.1257101608      -44.1718701228  TIP3      6183            0.0000000000
     35900      6320  TIP3      OH2            21.1168192270      -33.0082366645      -43.1734116424  TIP3      6184            0.0000000000
     35901      6320  TIP3      H1             20.2895745499      -32.5736122125      -42.9314116018  TIP3      6184            0.0000000000
     35902      6320  TIP3      H2             21.7138716784      -32.2249556213      -43.1760832322  TIP3      6184            0.0000000000
     35903      6321  TIP3      OH2            21.8398865475      -18.5752791518      -44.6145779411  TIP3      6185            0.0000000000
     35904      6321  TIP3      H1             21.9605745476      -17.6349985426      -44.3895238937  TIP3      6185            0.0000000000
     35905      6321  TIP3      H2             22.7563271746      -18.8138857040      -44.8208856344  TIP3      6185            0.0000000000
     35906      6322  TIP3      OH2            18.4582840810      -16.2465101156      -44.5458179261  TIP3      6186            0.0000000000
     35907      6322  TIP3      H1             18.8539078421      -17.1329277858      -44.5911540756  TIP3      6186            0.0000000000
     35908      6322  TIP3      H2             18.8144393513      -15.9744522846      -43.6889100632  TIP3      6186            0.0000000000
     35909      6323  TIP3      OH2            14.4565180769      -30.2793605515      -44.2478771390  TIP3      6187            0.0000000000
     35910      6323  TIP3      H1             13.5442811697      -30.0244824894      -44.0459585308  TIP3      6187            0.0000000000
     35911      6323  TIP3      H2             14.4606414384      -31.2319343644      -44.0831250133  TIP3      6187            0.0000000000
     35912      6324  TIP3      OH2             5.6471880848      -29.1659876256      -43.2209094346  TIP3      6188            0.0000000000
     35913      6324  TIP3      H1              6.2396633542      -28.6182369295      -43.7761121335  TIP3      6188            0.0000000000
     35914      6324  TIP3      H2              5.3727465459      -28.4552206931      -42.6165193458  TIP3      6188            0.0000000000
     35915      6325  TIP3      OH2            10.4206051149      -26.8045615644      -43.9935067909  TIP3      6189            0.0000000000
     35916      6325  TIP3      H1             10.0958658303      -26.7940814414      -44.9206003353  TIP3      6189            0.0000000000
     35917      6325  TIP3      H2             11.3249757159      -26.4830198419      -44.1262252148  TIP3      6189            0.0000000000
     35918      6326  TIP3      OH2            17.1192710380      -28.6312905350      -43.8327644682  TIP3      6190            0.0000000000
     35919      6326  TIP3      H1             16.2977786289      -29.1046593936      -43.6191028321  TIP3      6190            0.0000000000
     35920      6326  TIP3      H2             17.0171600461      -27.8080715581      -43.3393984056  TIP3      6190            0.0000000000
     35921      6327  TIP3      OH2            15.4897883962      -20.4544671473      -42.6791440657  TIP3      6191            0.0000000000
     35922      6327  TIP3      H1             15.1554429911      -19.5474884867      -42.6737363344  TIP3      6191            0.0000000000
     35923      6327  TIP3      H2             15.3584224933      -20.7107094767      -41.7405131102  TIP3      6191            0.0000000000
     35924      6328  TIP3      OH2             8.0163644440      -24.3287712809      -45.0386982984  TIP3      6192            0.0000000000
     35925      6328  TIP3      H1              8.0406017543      -23.5065068719      -44.4962243530  TIP3      6192            0.0000000000
     35926      6328  TIP3      H2              7.3380268544      -24.8080250720      -44.5456430489  TIP3      6192            0.0000000000
     35927      6329  TIP3      OH2            18.3988670498      -20.9592101258      -44.4001311114  TIP3      6193            0.0000000000
     35928      6329  TIP3      H1             18.4277977088      -20.1453638529      -43.8807221818  TIP3      6193            0.0000000000
     35929      6329  TIP3      H2             17.4401074203      -21.0919287355      -44.4920569193  TIP3      6193            0.0000000000
     35930      6330  TIP3      OH2            23.0137361114      -16.0599163371      -43.8769425664  TIP3      6194            0.0000000000
     35931      6330  TIP3      H1             23.6451495814      -15.6683099367      -44.4944219371  TIP3      6194            0.0000000000
     35932      6330  TIP3      H2             22.7117736742      -15.3055524179      -43.3487256818  TIP3      6194            0.0000000000
     35933      6331  TIP3      OH2            12.1333791679      -19.8734721197      -43.6052412519  TIP3      6195            0.0000000000
     35934      6331  TIP3      H1             12.5834071247      -20.2350342240      -42.8314521543  TIP3      6195            0.0000000000
     35935      6331  TIP3      H2             11.8289013376      -19.0073110415      -43.2677490039  TIP3      6195            0.0000000000
     35936      6332  TIP3      OH2             7.6752329260      -22.3411264089      -43.2620172275  TIP3      6196            0.0000000000
     35937      6332  TIP3      H1              7.3027990292      -22.8386503448      -42.4965150053  TIP3      6196            0.0000000000
     35938      6332  TIP3      H2              8.6193594013      -22.2432136781      -43.0127211264  TIP3      6196            0.0000000000
     35939      6333  TIP3      OH2            14.1049357131      -17.3449145433      -42.2777992325  TIP3      6197            0.0000000000
     35940      6333  TIP3      H1             13.1910033151      -17.2573204472      -42.6252696138  TIP3      6197            0.0000000000
     35941      6333  TIP3      H2             14.6619310726      -16.9430571606      -42.9850436660  TIP3      6197            0.0000000000
     35942      6334  TIP3      OH2            11.3762878006      -17.3651488943      -42.7586689898  TIP3      6198            0.0000000000
     35943      6334  TIP3      H1             10.9589493002      -16.7282031365      -43.3633500906  TIP3      6198            0.0000000000
     35944      6334  TIP3      H2             11.2588238552      -16.8967347654      -41.9101580538  TIP3      6198            0.0000000000
     35945      6335  TIP3      OH2             9.5049540095      -30.1192665243      -43.3458474652  TIP3      6199            0.0000000000
     35946      6335  TIP3      H1              9.7811781845      -29.2517372029      -42.9824924376  TIP3      6199            0.0000000000
     35947      6335  TIP3      H2             10.2739917945      -30.6290368262      -43.0416729564  TIP3      6199            0.0000000000
     35948      6336  TIP3      OH2             8.8959034558      -19.1569293719      -44.6414204102  TIP3      6200            0.0000000000
     35949      6336  TIP3      H1              9.3411257538      -19.0903322889      -43.7899502169  TIP3      6200            0.0000000000
     35950      6336  TIP3      H2              9.6671266675      -19.2872174505      -45.2256700458  TIP3      6200            0.0000000000
     35951      6337  TIP3      OH2             6.4901248993      -27.0641321242      -44.8761745887  TIP3      6201            0.0000000000
     35952      6337  TIP3      H1              7.1380794192      -27.0678596771      -45.5992275897  TIP3      6201            0.0000000000
     35953      6337  TIP3      H2              5.6745798483      -26.7604259212      -45.3059502398  TIP3      6201            0.0000000000
     35954      6338  TIP3      OH2            11.5291998522      -24.0479442562      -43.6519500850  TIP3      6202            0.0000000000
     35955      6338  TIP3      H1             10.8026133022      -24.6931051727      -43.6956125593  TIP3      6202            0.0000000000
     35956      6338  TIP3      H2             12.1657510548      -24.4270191247      -44.3038855172  TIP3      6202            0.0000000000
     35957      6339  TIP3      OH2            12.9223435087      -25.6081406273      -45.1825996688  TIP3      6203            0.0000000000
     35958      6339  TIP3      H1             13.3202254902      -25.5134273742      -46.0649286443  TIP3      6203            0.0000000000
     35959      6339  TIP3      H2             13.7151451515      -25.8311451594      -44.6407368356  TIP3      6203            0.0000000000
     35960      6340  TIP3      OH2            12.7636663518      -14.5050908349      -43.8144747828  TIP3      6204            0.0000000000
     35961      6340  TIP3      H1             13.6199595983      -14.9074451296      -44.0411634076  TIP3      6204            0.0000000000
     35962      6340  TIP3      H2             12.3031581878      -14.5150559251      -44.6767998456  TIP3      6204            0.0000000000
     35963      6341  TIP3      OH2             6.1747294276      -19.9256372247      -44.3043504403  TIP3      6205            0.0000000000
     35964      6341  TIP3      H1              7.1395645027      -19.8422114325      -44.4203496116  TIP3      6205            0.0000000000
     35965      6341  TIP3      H2              5.9402685336      -20.3148162092      -45.1654952315  TIP3      6205            0.0000000000
     35966      6342  TIP3      OH2            23.5187021395      -25.2701995094      -43.3280103173  TIP3      6206            0.0000000000
     35967      6342  TIP3      H1             22.9111833078      -25.7991564926      -43.8708542430  TIP3      6206            0.0000000000
     35968      6342  TIP3      H2             22.9501876488      -24.5400164551      -43.0212898053  TIP3      6206            0.0000000000
     35969      6343  TIP3      OH2            21.2381467336      -27.1546769092      -44.3239367138  TIP3      6207            0.0000000000
     35970      6343  TIP3      H1             21.4885886033      -27.1540126279      -45.2742389067  TIP3      6207            0.0000000000
     35971      6343  TIP3      H2             20.3577861288      -27.5512820035      -44.3434103909  TIP3      6207            0.0000000000
     35972      6344  TIP3      OH2            22.6723524513      -30.9255606439      -43.9962409425  TIP3      6208            0.0000000000
     35973      6344  TIP3      H1             23.2613306913      -31.3790805798      -44.6322773415  TIP3      6208            0.0000000000
     35974      6344  TIP3      H2             23.1933331873      -30.1121875316      -43.8412968699  TIP3      6208            0.0000000000
     35975      6345  TIP3      OH2             5.6304297362      -31.9851522008      -42.7538422962  TIP3      6209            0.0000000000
     35976      6345  TIP3      H1              6.5611668742      -31.8353719318      -42.5347451127  TIP3      6209            0.0000000000
     35977      6345  TIP3      H2              5.3718532985      -31.0718693842      -42.9643397729  TIP3      6209            0.0000000000
     35978      6346  TIP3      OH2             8.3092601867      -32.2682183103      -44.6367150239  TIP3      6210            0.0000000000
     35979      6346  TIP3      H1              8.5332354654      -32.0602345508      -45.5757972918  TIP3      6210            0.0000000000
     35980      6346  TIP3      H2              8.4906665175      -31.3950577180      -44.2334832592  TIP3      6210            0.0000000000
     35981      6347  TIP3      OH2            15.5376958259      -15.8363854473      -44.0687292315  TIP3      6211            0.0000000000
     35982      6347  TIP3      H1             16.4287881028      -15.4485890590      -44.1190811675  TIP3      6211            0.0000000000
     35983      6347  TIP3      H2             15.5516480020      -16.3987341922      -44.8614104795  TIP3      6211            0.0000000000
     35984      6348  TIP3      OH2             8.0638225821      -15.5861707683      -44.7849390307  TIP3      6212            0.0000000000
     35985      6348  TIP3      H1              7.5621347703      -15.0548665695      -44.1427947996  TIP3      6212            0.0000000000
     35986      6348  TIP3      H2              8.2579179988      -16.3730710879      -44.2693256897  TIP3      6212            0.0000000000
     35987      6349  TIP3      OH2            24.7545142425      -29.2234592379      -43.2928050872  TIP3      6213            0.0000000000
     35988      6349  TIP3      H1             25.4068717251      -28.6862242497      -43.7868159071  TIP3      6213            0.0000000000
     35989      6349  TIP3      H2             24.3784797774      -28.5607230339      -42.7036570692  TIP3      6213            0.0000000000
     35990      6350  TIP3      OH2            29.1345946228      -27.3150618353      -43.8557816103  TIP3      6214            0.0000000000
     35991      6350  TIP3      H1             28.2061577604      -27.1140626555      -44.0987276092  TIP3      6214            0.0000000000
     35992      6350  TIP3      H2             29.5300599294      -27.1709166740      -44.7330709128  TIP3      6214            0.0000000000
     35993      6351  TIP3      OH2            26.1300495664      -24.5961677192      -44.8266246258  TIP3      6215            0.0000000000
     35994      6351  TIP3      H1             26.4943822540      -23.7864089410      -44.3886729979  TIP3      6215            0.0000000000
     35995      6351  TIP3      H2             25.2800506272      -24.6525991776      -44.3394641397  TIP3      6215            0.0000000000
     35996      6352  TIP3      OH2            30.3430563295      -19.6593231354      -43.3521179663  TIP3      6216            0.0000000000
     35997      6352  TIP3      H1             30.3007001237      -19.8960090321      -42.4173327602  TIP3      6216            0.0000000000
     35998      6352  TIP3      H2             30.3181030956      -18.6733116375      -43.2718428932  TIP3      6216            0.0000000000
     35999      6353  TIP3      OH2            26.6123270175      -22.4541666726      -43.3257373848  TIP3      6217            0.0000000000
     36000      6353  TIP3      H1             26.3304096609      -22.8980055717      -42.5034132818  TIP3      6217            0.0000000000
     36001      6353  TIP3      H2             27.4407871860      -22.0361819030      -43.0147377427  TIP3      6217            0.0000000000
     36002      6354  TIP3      OH2            29.9390849717      -17.0259719609      -42.8965583045  TIP3      6218            0.0000000000
     36003      6354  TIP3      H1             30.1601488317      -16.2671367246      -43.4828258403  TIP3      6218            0.0000000000
     36004      6354  TIP3      H2             30.1932988707      -16.6572940522      -42.0339540829  TIP3      6218            0.0000000000
     36005      6355  TIP3      OH2            28.6579970313      -29.9149822665      -42.9608518210  TIP3      6219            0.0000000000
     36006      6355  TIP3      H1             28.7545835437      -28.9410007177      -42.9031923305  TIP3      6219            0.0000000000
     36007      6355  TIP3      H2             29.5631123122      -30.1723766876      -42.7373399504  TIP3      6219            0.0000000000
     36008      6356  TIP3      OH2            27.6987275547      -19.7954318070      -44.2034594111  TIP3      6220            0.0000000000
     36009      6356  TIP3      H1             28.5744895096      -19.7235611021      -43.7813601542  TIP3      6220            0.0000000000
     36010      6356  TIP3      H2             27.8516932615      -19.5031620912      -45.1150047282  TIP3      6220            0.0000000000
     36011      6357  TIP3      OH2            26.5540416844      -27.2603880488      -44.6461353126  TIP3      6221            0.0000000000
     36012      6357  TIP3      H1             26.2562184539      -26.3266749050      -44.5632294985  TIP3      6221            0.0000000000
     36013      6357  TIP3      H2             26.6346191939      -27.3053349560      -45.6205391823  TIP3      6221            0.0000000000
     36014      6358  TIP3      OH2            30.2069186592      -23.9871493100      -44.0512933318  TIP3      6222            0.0000000000
     36015      6358  TIP3      H1             30.4351740197      -23.8613916139      -43.1219569106  TIP3      6222            0.0000000000
     36016      6358  TIP3      H2             30.9227982619      -24.6024967171      -44.3229888300  TIP3      6222            0.0000000000
     36017      6359  TIP3      OH2            31.9649776135      -25.8475280482       45.8636951604  TIP3      6223            0.0000000000
     36018      6359  TIP3      H1             31.6860330531      -26.2849752648       45.0446681037  TIP3      6223            0.0000000000
     36019      6359  TIP3      H2             32.9347576869      -25.7911281106       45.7768050953  TIP3      6223            0.0000000000
     36020      6360  TIP3      OH2            31.2038832164      -15.0930453028      -44.2779950186  TIP3      6224            0.0000000000
     36021      6360  TIP3      H1             32.0869565735      -14.8622545261      -43.9617666358  TIP3      6224            0.0000000000
     36022      6360  TIP3      H2             31.3361071668      -14.9814397463      -45.2509547758  TIP3      6224            0.0000000000
     36023      6361  TIP3      OH2            25.0094211794      -20.2553320607      -44.0262274181  TIP3      6225            0.0000000000
     36024      6361  TIP3      H1             25.9938007236      -20.3003275368      -44.0222909912  TIP3      6225            0.0000000000
     36025      6361  TIP3      H2             24.8657553797      -20.4370031824      -44.9697191935  TIP3      6225            0.0000000000
     36026      6362  TIP3      OH2            24.7660892680      -32.4095856878      -42.7374606819  TIP3      6226            0.0000000000
     36027      6362  TIP3      H1             25.6688767989      -32.3361719164      -43.0950224810  TIP3      6226            0.0000000000
     36028      6362  TIP3      H2             24.4948282359      -31.4800180392      -42.8167575043  TIP3      6226            0.0000000000
     36029      6363  TIP3      OH2            26.8900821498      -31.8203617304      -44.3083466654  TIP3      6227            0.0000000000
     36030      6363  TIP3      H1             26.9466222366      -31.5252799893      -45.2441016531  TIP3      6227            0.0000000000
     36031      6363  TIP3      H2             27.3660809212      -31.0762213071      -43.8789664692  TIP3      6227            0.0000000000
     36032      6364  TIP3      OH2            26.8680614862      -15.3234225020      -44.9960163773  TIP3      6228            0.0000000000
     36033      6364  TIP3      H1             26.2491992147      -14.7633588550      -44.5057528356  TIP3      6228            0.0000000000
     36034      6364  TIP3      H2             27.4724887908      -15.6148394313      -44.2968701182  TIP3      6228            0.0000000000
     36035      6365  TIP3      OH2           -22.5040358141       -7.7780080158      -44.1787627158  TIP3      6229            0.0000000000
     36036      6365  TIP3      H1            -21.8371840250       -7.0929563946      -43.9549274826  TIP3      6229            0.0000000000
     36037      6365  TIP3      H2            -22.2562353880       -7.9080733888      -45.1088988129  TIP3      6229            0.0000000000
     36038      6366  TIP3      OH2           -20.3963726200       -6.0158769604      -43.9240256323  TIP3      6230            0.0000000000
     36039      6366  TIP3      H1            -20.5480833396       -5.9188253416      -42.9740546442  TIP3      6230            0.0000000000
     36040      6366  TIP3      H2            -19.4458199794       -6.1779100497      -44.0206893052  TIP3      6230            0.0000000000
     36041      6367  TIP3      OH2           -16.3463216349      -13.7948366060      -42.3888909144  TIP3      6231            0.0000000000
     36042      6367  TIP3      H1            -17.1989576778      -14.0096246936      -42.7810366967  TIP3      6231            0.0000000000
     36043      6367  TIP3      H2            -15.8967071106      -13.3276346632      -43.1248968868  TIP3      6231            0.0000000000
     36044      6368  TIP3      OH2           -15.8435410473        0.2721776229      -44.3860459224  TIP3      6232            0.0000000000
     36045      6368  TIP3      H1            -15.6835927782        1.1363031583      -43.9573620540  TIP3      6232            0.0000000000
     36046      6368  TIP3      H2            -14.9453681316        0.0000465436      -44.6177962161  TIP3      6232            0.0000000000
     36047      6369  TIP3      OH2           -19.4539335616        2.5185879541      -44.3431594033  TIP3      6233            0.0000000000
     36048      6369  TIP3      H1            -18.9279372842        1.7239993288      -44.5292172603  TIP3      6233            0.0000000000
     36049      6369  TIP3      H2            -19.1833102466        2.6507093657      -43.4189494497  TIP3      6233            0.0000000000
     36050      6370  TIP3      OH2           -22.9444932743      -11.4245619729      -44.5740034824  TIP3      6234            0.0000000000
     36051      6370  TIP3      H1            -23.4946359792      -10.8908393597      -43.9754201253  TIP3      6234            0.0000000000
     36052      6370  TIP3      H2            -22.7559720577      -12.2209329311      -44.0572671809  TIP3      6234            0.0000000000
     36053      6371  TIP3      OH2           -31.7289029061      -10.8564014072      -43.3351328531  TIP3      6235            0.0000000000
     36054      6371  TIP3      H1            -30.9167454200      -10.3864198249      -43.0832771616  TIP3      6235            0.0000000000
     36055      6371  TIP3      H2            -32.4428654661      -10.3929920184      -42.8759622530  TIP3      6235            0.0000000000
     36056      6372  TIP3      OH2           -27.1558596737       -7.8926839409      -44.0604791216  TIP3      6236            0.0000000000
     36057      6372  TIP3      H1            -27.4446225704       -8.2455158747      -44.9390711901  TIP3      6236            0.0000000000
     36058      6372  TIP3      H2            -26.2741337630       -7.5588026027      -44.3256150548  TIP3      6236            0.0000000000
     36059      6373  TIP3      OH2           -20.4609582018       -9.9246018278      -44.4565261154  TIP3      6237            0.0000000000
     36060      6373  TIP3      H1            -21.3394013530      -10.3385850986      -44.4375607110  TIP3      6237            0.0000000000
     36061      6373  TIP3      H2            -20.6157239002       -9.1422551205      -43.9148795379  TIP3      6237            0.0000000000
     36062      6374  TIP3      OH2           -22.5511974155       -1.9389683524      -42.3644616610  TIP3      6238            0.0000000000
     36063      6374  TIP3      H1            -22.6259520969       -0.9773218680      -42.5220724853  TIP3      6238            0.0000000000
     36064      6374  TIP3      H2            -22.4165507318       -1.9606109777      -41.3965255014  TIP3      6238            0.0000000000
     36065      6375  TIP3      OH2           -31.2825422105       -5.6813602189      -44.6653650865  TIP3      6239            0.0000000000
     36066      6375  TIP3      H1            -30.6262570698       -5.4769754593      -43.9565298803  TIP3      6239            0.0000000000
     36067      6375  TIP3      H2            -31.5802109040       -4.7628467624      -44.7515049431  TIP3      6239            0.0000000000
     36068      6376  TIP3      OH2           -19.1210826623       -2.0660505043      -44.5229380866  TIP3      6240            0.0000000000
     36069      6376  TIP3      H1            -19.0198980272       -1.1601288784      -44.2060223146  TIP3      6240            0.0000000000
     36070      6376  TIP3      H2            -20.0872850890       -2.1761217322      -44.5998144166  TIP3      6240            0.0000000000
     36071      6377  TIP3      OH2           -14.9744455267        2.6348366803      -43.4186972209  TIP3      6241            0.0000000000
     36072      6377  TIP3      H1            -14.8116933463        3.0647450001      -44.2716657330  TIP3      6241            0.0000000000
     36073      6377  TIP3      H2            -15.2476135663        3.3952539674      -42.8588784002  TIP3      6241            0.0000000000
     36074      6378  TIP3      OH2           -25.0010483426       -1.1857798808      -43.7106242356  TIP3      6242            0.0000000000
     36075      6378  TIP3      H1            -24.4191201045       -1.8742557714      -43.3371575974  TIP3      6242            0.0000000000
     36076      6378  TIP3      H2            -24.4078597800       -0.4124547687      -43.6676603240  TIP3      6242            0.0000000000
     36077      6379  TIP3      OH2           -29.8721295939       -4.1850433379      -42.9963337182  TIP3      6243            0.0000000000
     36078      6379  TIP3      H1            -30.3353472787       -3.3290582876      -43.1513644876  TIP3      6243            0.0000000000
     36079      6379  TIP3      H2            -28.9516456581       -3.9115172976      -43.0970288401  TIP3      6243            0.0000000000
     36080      6380  TIP3      OH2           -23.3732994175        0.7366794733      -42.6672323936  TIP3      6244            0.0000000000
     36081      6380  TIP3      H1            -24.2117631341        1.2554010338      -42.6444216727  TIP3      6244            0.0000000000
     36082      6380  TIP3      H2            -22.7447547746        1.4515886500      -42.8898819892  TIP3      6244            0.0000000000
     36083      6381  TIP3      OH2           -25.6940560488        2.0416203298      -42.8859988445  TIP3      6245            0.0000000000
     36084      6381  TIP3      H1            -25.9469296167        2.3506341364      -43.7704152963  TIP3      6245            0.0000000000
     36085      6381  TIP3      H2            -25.8070048635        2.8738802327      -42.3801010019  TIP3      6245            0.0000000000
     36086      6382  TIP3      OH2           -27.5743165552      -11.7773403699      -43.5550396660  TIP3      6246            0.0000000000
     36087      6382  TIP3      H1            -28.2512671923      -11.2275134622      -43.1474711483  TIP3      6246            0.0000000000
     36088      6382  TIP3      H2            -26.7778531640      -11.3742106568      -43.1397806787  TIP3      6246            0.0000000000
     36089      6383  TIP3      OH2           -29.0570208749       -0.2693927439      -44.3359338683  TIP3      6247            0.0000000000
     36090      6383  TIP3      H1            -29.1084444906        0.6918200172      -44.1958038774  TIP3      6247            0.0000000000
     36091      6383  TIP3      H2            -29.1430482774       -0.3348557386      -45.3094559036  TIP3      6247            0.0000000000
     36092      6384  TIP3      OH2           -30.7994340435       -8.2313956588      -45.1810204667  TIP3      6248            0.0000000000
     36093      6384  TIP3      H1            -30.8412006978       -7.2665890683      -44.9997336651  TIP3      6248            0.0000000000
     36094      6384  TIP3      H2            -31.6065249907       -8.5659332954      -44.7672957590  TIP3      6248            0.0000000000
     36095      6385  TIP3      OH2           -26.2569507606       -4.7384275074      -43.7113730973  TIP3      6249            0.0000000000
     36096      6385  TIP3      H1            -26.8719035343       -5.4079012542      -43.3797955029  TIP3      6249            0.0000000000
     36097      6385  TIP3      H2            -25.5371436345       -5.3076963645      -44.0611736271  TIP3      6249            0.0000000000
     36098      6386  TIP3      OH2           -24.9081541433       -6.8189774957      -45.0987133901  TIP3      6250            0.0000000000
     36099      6386  TIP3      H1            -24.8123289372       -6.8917625799      -46.0715156931  TIP3      6250            0.0000000000
     36100      6386  TIP3      H2            -24.0973957142       -7.3006506572      -44.8058849893  TIP3      6250            0.0000000000
     36101      6387  TIP3      OH2           -25.0106673254        4.7047443978      -43.6694620107  TIP3      6251            0.0000000000
     36102      6387  TIP3      H1            -24.1684936225        4.2547824335      -43.8574185178  TIP3      6251            0.0000000000
     36103      6387  TIP3      H2            -25.4429425549        4.6127601108      -44.5507133284  TIP3      6251            0.0000000000
     36104      6388  TIP3      OH2           -31.1009677436       -2.0305198052      -44.0060846814  TIP3      6252            0.0000000000
     36105      6388  TIP3      H1            -30.2856327596       -1.4924959260      -44.0789966947  TIP3      6252            0.0000000000
     36106      6388  TIP3      H2            -31.4514884146       -1.9056236834      -44.9080795088  TIP3      6252            0.0000000000
     36107      6389  TIP3      OH2           -14.4175847740       -6.4125372695      -43.5962532639  TIP3      6253            0.0000000000
     36108      6389  TIP3      H1            -14.7686896588       -6.4077117480      -44.5105724242  TIP3      6253            0.0000000000
     36109      6389  TIP3      H2            -14.7566144065       -5.5656689692      -43.2690147653  TIP3      6253            0.0000000000
     36110      6390  TIP3      OH2           -16.5891405443       -8.0701756713       45.9293712666  TIP3      6254            0.0000000000
     36111      6390  TIP3      H1            -16.2639564535       -7.8410446093       45.0316127706  TIP3      6254            0.0000000000
     36112      6390  TIP3      H2            -16.2952926467       -8.9883744611       45.9632328090  TIP3      6254            0.0000000000
     36113      6391  TIP3      OH2           -14.9956042932      -12.3354386640      -44.3659853616  TIP3      6255            0.0000000000
     36114      6391  TIP3      H1            -14.3619973412      -12.4868678646      -45.0914430273  TIP3      6255            0.0000000000
     36115      6391  TIP3      H2            -14.5392749805      -11.5823091467      -43.9269661854  TIP3      6255            0.0000000000
     36116      6392  TIP3      OH2           -31.8402652537      -13.5367561462      -43.3613705866  TIP3      6256            0.0000000000
     36117      6392  TIP3      H1            -30.9526798467      -13.5025721814      -43.7613940491  TIP3      6256            0.0000000000
     36118      6392  TIP3      H2            -31.9069636233      -12.6047423302      -43.0699598034  TIP3      6256            0.0000000000
     36119      6393  TIP3      OH2           -29.3512903253      -13.4576959687      -44.7082706323  TIP3      6257            0.0000000000
     36120      6393  TIP3      H1            -29.2650070874      -13.0482448998      -45.6019419365  TIP3      6257            0.0000000000
     36121      6393  TIP3      H2            -28.6034932700      -13.0394433585      -44.2298564251  TIP3      6257            0.0000000000
     36122      6394  TIP3      OH2           -22.2986268931        3.0855807939      -44.0740505192  TIP3      6258            0.0000000000
     36123      6394  TIP3      H1            -21.3421079502        3.0793528522      -44.2773785386  TIP3      6258            0.0000000000
     36124      6394  TIP3      H2            -22.6825872014        3.2587254808      -44.9611843837  TIP3      6258            0.0000000000
     36125      6395  TIP3      OH2           -29.2232145270        2.8256232479      -44.6849523686  TIP3      6259            0.0000000000
     36126      6395  TIP3      H1            -29.9529470994        3.4133625694      -44.9290335433  TIP3      6259            0.0000000000
     36127      6395  TIP3      H2            -29.1587521316        3.0402945380      -43.7413270317  TIP3      6259            0.0000000000
     36128      6396  TIP3      OH2            -3.7730546082       -7.3300693733      -44.1826600278  TIP3      6260            0.0000000000
     36129      6396  TIP3      H1             -2.9508552802       -6.8554709783      -43.9183689944  TIP3      6260            0.0000000000
     36130      6396  TIP3      H2             -3.5192327818       -7.6447105538      -45.0660553633  TIP3      6260            0.0000000000
     36131      6397  TIP3      OH2            -1.4415349201       -5.9275940007      -43.9138073295  TIP3      6261            0.0000000000
     36132      6397  TIP3      H1             -1.8489544804       -5.5406069973      -43.1240780429  TIP3      6261            0.0000000000
     36133      6397  TIP3      H2             -0.9501340270       -5.2103276329      -44.3438564465  TIP3      6261            0.0000000000
     36134      6398  TIP3      OH2             2.5334520241      -13.7480296812      -42.5779857962  TIP3      6262            0.0000000000
     36135      6398  TIP3      H1              1.6344251836      -14.0960272648      -42.6700975786  TIP3      6262            0.0000000000
     36136      6398  TIP3      H2              2.6089848650      -13.1703621659      -43.3617126054  TIP3      6262            0.0000000000
     36137      6399  TIP3      OH2             3.1040752462        0.4549294911      -45.0525090581  TIP3      6263            0.0000000000
     36138      6399  TIP3      H1              3.0554692882        1.1786774265      -44.4026993270  TIP3      6263            0.0000000000
     36139      6399  TIP3      H2              4.0124597026        0.1469493158      -44.9158997689  TIP3      6263            0.0000000000
     36140      6400  TIP3      OH2            -0.7506178566        2.2339586608      -44.2956317697  TIP3      6264            0.0000000000
     36141      6400  TIP3      H1             -0.0551467827        1.6838133900      -44.6843476078  TIP3      6264            0.0000000000
     36142      6400  TIP3      H2             -0.5849039328        2.0623956438      -43.3499047533  TIP3      6264            0.0000000000
     36143      6401  TIP3      OH2            -4.4858771469      -11.0556217790      -44.5863584983  TIP3      6265            0.0000000000
     36144      6401  TIP3      H1             -4.8914504740      -10.5736718251      -43.8528439755  TIP3      6265            0.0000000000
     36145      6401  TIP3      H2             -4.4375789832      -11.9575814231      -44.2304557178  TIP3      6265            0.0000000000
     36146      6402  TIP3      OH2           -13.3764204879      -10.4367219499      -43.2982993627  TIP3      6266            0.0000000000
     36147      6402  TIP3      H1            -12.4883310926      -10.5268405344      -43.6917063168  TIP3      6266            0.0000000000
     36148      6402  TIP3      H2            -13.4088469597       -9.4740903938      -43.1758624006  TIP3      6266            0.0000000000
     36149      6403  TIP3      OH2            -8.5068587137       -7.8351236578      -43.7901337099  TIP3      6267            0.0000000000
     36150      6403  TIP3      H1             -8.9593026116       -7.9148184960      -44.6482656333  TIP3      6267            0.0000000000
     36151      6403  TIP3      H2             -7.6010951844       -7.6343788021      -44.0873842405  TIP3      6267            0.0000000000
     36152      6404  TIP3      OH2            -1.8587918176      -10.0984697604      -44.4175316839  TIP3      6268            0.0000000000
     36153      6404  TIP3      H1             -2.7843932457      -10.4146562644      -44.3768055034  TIP3      6268            0.0000000000
     36154      6404  TIP3      H2             -1.8571172274       -9.3517506289      -43.8046331759  TIP3      6268            0.0000000000
     36155      6405  TIP3      OH2            -3.2829076632       -1.6549714393      -42.7895520627  TIP3      6269            0.0000000000
     36156      6405  TIP3      H1             -3.7174465854       -0.8039530450      -42.6743225949  TIP3      6269            0.0000000000
     36157      6405  TIP3      H2             -3.4564401078       -2.0501646096      -41.9167923650  TIP3      6269            0.0000000000
     36158      6406  TIP3      OH2           -11.3591672475       -5.1371539744      -44.9477807728  TIP3      6270            0.0000000000
     36159      6406  TIP3      H1            -11.0035322021       -4.3010520303      -44.5749158803  TIP3      6270            0.0000000000
     36160      6406  TIP3      H2            -12.0987525083       -5.2773202604      -44.3372913371  TIP3      6270            0.0000000000
     36161      6407  TIP3      OH2            -0.3458625923       -2.0684134462      -44.5448397838  TIP3      6271            0.0000000000
     36162      6407  TIP3      H1             -0.3253635690       -1.3214423738      -43.9336705283  TIP3      6271            0.0000000000
     36163      6407  TIP3      H2             -1.2993873572       -2.2586248570      -44.5687597169  TIP3      6271            0.0000000000
     36164      6408  TIP3      OH2             3.9342180352        2.5662385540      -43.3561725451  TIP3      6272            0.0000000000
     36165      6408  TIP3      H1              4.3216606813        2.9210620851      -44.1822763798  TIP3      6272            0.0000000000
     36166      6408  TIP3      H2              3.4198194679        3.3412845456      -43.0397604433  TIP3      6272            0.0000000000
     36167      6409  TIP3      OH2            -6.7224241706       -0.9891436752      -43.4648910891  TIP3      6273            0.0000000000
     36168      6409  TIP3      H1             -6.2542163902       -1.1716984230      -42.6411151744  TIP3      6273            0.0000000000
     36169      6409  TIP3      H2             -6.8786077647       -0.0204257102      -43.3816632367  TIP3      6273            0.0000000000
     36170      6410  TIP3      OH2           -10.8515017086       -3.0204354186      -43.2786897851  TIP3      6274            0.0000000000
     36171      6410  TIP3      H1            -11.4137816353       -3.4821960428      -42.6087633164  TIP3      6274            0.0000000000
     36172      6410  TIP3      H2             -9.9595190891       -3.2027339195      -42.8983366917  TIP3      6274            0.0000000000
     36173      6411  TIP3      OH2            -4.5818306631        1.2045862515      -41.9677107085  TIP3      6275            0.0000000000
     36174      6411  TIP3      H1             -5.5018424336        1.3720858185      -42.2700666619  TIP3      6275            0.0000000000
     36175      6411  TIP3      H2             -4.0761548535        1.5916709394      -42.7059522175  TIP3      6275            0.0000000000
     36176      6412  TIP3      OH2            -7.1045707407        1.6589954688      -42.8769866499  TIP3      6276            0.0000000000
     36177      6412  TIP3      H1             -7.2603400087        2.4299304291      -43.4552072840  TIP3      6276            0.0000000000
     36178      6412  TIP3      H2             -7.4778656010        1.9864930183      -42.0396722951  TIP3      6276            0.0000000000
     36179      6413  TIP3      OH2            -8.2628150970      -12.3359220068      -43.2975299050  TIP3      6277            0.0000000000
     36180      6413  TIP3      H1             -8.0791657898      -11.4882633759      -42.8213316710  TIP3      6277            0.0000000000
     36181      6413  TIP3      H2             -7.6603540256      -12.9753995436      -42.8705399924  TIP3      6277            0.0000000000
     36182      6414  TIP3      OH2            -9.8933827767       -0.4915020247      -44.2848973915  TIP3      6278            0.0000000000
     36183      6414  TIP3      H1             -9.7948083842       -0.1041046409      -43.4137229529  TIP3      6278            0.0000000000
     36184      6414  TIP3      H2             -9.8365468428       -1.4379169069      -44.0754856153  TIP3      6278            0.0000000000
     36185      6415  TIP3      OH2           -11.9812506712       -7.9463591652      -45.0392307173  TIP3      6279            0.0000000000
     36186      6415  TIP3      H1            -11.4854807044       -7.1506185403      -44.7987403317  TIP3      6279            0.0000000000
     36187      6415  TIP3      H2            -12.8843317035       -7.5914509058      -45.0527416242  TIP3      6279            0.0000000000
     36188      6416  TIP3      OH2            -7.4712356952       -4.7266591407      -43.8840148432  TIP3      6280            0.0000000000
     36189      6416  TIP3      H1             -8.1474649557       -5.3308517582      -43.5300680955  TIP3      6280            0.0000000000
     36190      6416  TIP3      H2             -6.8758353058       -5.3599098983      -44.3397606860  TIP3      6280            0.0000000000
     36191      6417  TIP3      OH2            -6.2355646079       -6.7578446360      -45.0403947197  TIP3      6281            0.0000000000
     36192      6417  TIP3      H1             -6.1180674084       -6.7001369916      -46.0005332065  TIP3      6281            0.0000000000
     36193      6417  TIP3      H2             -5.3368195014       -7.0336694391      -44.7400885759  TIP3      6281            0.0000000000
     36194      6418  TIP3      OH2            -6.0246276533        4.1454338856      -43.6056463820  TIP3      6282            0.0000000000
     36195      6418  TIP3      H1             -5.1936528673        3.6374218921      -43.5376144668  TIP3      6282            0.0000000000
     36196      6418  TIP3      H2             -5.9994924503        4.3528600046      -44.5648315215  TIP3      6282            0.0000000000
     36197      6419  TIP3      OH2           -12.8397685745       -1.0117022437      -44.4730747662  TIP3      6283            0.0000000000
     36198      6419  TIP3      H1            -11.8749629351       -1.0784967719      -44.3920407266  TIP3      6283            0.0000000000
     36199      6419  TIP3      H2            -12.9227151386       -1.3550056918      -45.3870413345  TIP3      6283            0.0000000000
     36200      6420  TIP3      OH2             4.5457440810       -6.4595756729      -43.6560701406  TIP3      6284            0.0000000000
     36201      6420  TIP3      H1              4.2351782999       -6.2964661110      -44.5743368705  TIP3      6284            0.0000000000
     36202      6420  TIP3      H2              4.1427790296       -5.6950725517      -43.2114806531  TIP3      6284            0.0000000000
     36203      6421  TIP3      OH2             1.9586718295       -8.4297070044       45.7821388313  TIP3      6285            0.0000000000
     36204      6421  TIP3      H1              2.5234042423       -8.2506604965       45.0056968060  TIP3      6285            0.0000000000
     36205      6421  TIP3      H2              2.1080131289       -9.3613362267       45.9579986041  TIP3      6285            0.0000000000
     36206      6422  TIP3      OH2             3.3942013672      -11.7417802459      -44.4397029359  TIP3      6286            0.0000000000
     36207      6422  TIP3      H1              3.6371705707      -11.3691122881      -45.3137758353  TIP3      6286            0.0000000000
     36208      6422  TIP3      H2              4.1546894160      -11.4309204794      -43.9007979738  TIP3      6286            0.0000000000
     36209      6423  TIP3      OH2           -12.3139375663      -13.7040429294      -43.1921859608  TIP3      6287            0.0000000000
     36210      6423  TIP3      H1            -11.6310925559      -13.1962581131      -43.6892701312  TIP3      6287            0.0000000000
     36211      6423  TIP3      H2            -12.5063111885      -13.0205993412      -42.5260747991  TIP3      6287            0.0000000000
     36212      6424  TIP3      OH2           -10.7224458244      -12.0433666825      -44.5577555471  TIP3      6288            0.0000000000
     36213      6424  TIP3      H1            -10.5382260930      -12.3356395898      -45.4747842190  TIP3      6288            0.0000000000
     36214      6424  TIP3      H2             -9.8551144917      -12.1420595136      -44.1074098317  TIP3      6288            0.0000000000
     36215      6425  TIP3      OH2            -3.4328979261        3.0503043641      -44.0307590785  TIP3      6289            0.0000000000
     36216      6425  TIP3      H1             -2.5222853796        3.3615167162      -43.8580233595  TIP3      6289            0.0000000000
     36217      6425  TIP3      H2             -3.2980522240        2.5996424078      -44.8844090717  TIP3      6289            0.0000000000
     36218      6426  TIP3      OH2           -10.6790470898        3.3045030728      -44.8439956892  TIP3      6290            0.0000000000
     36219      6426  TIP3      H1            -11.4151616957        3.8609562471      -44.5735444714  TIP3      6290            0.0000000000
     36220      6426  TIP3      H2            -10.2104862755        3.1959335772      -44.0054788011  TIP3      6290            0.0000000000
     36221      6427  TIP3      OH2            15.3339990007       -7.5240706383      -44.3175877451  TIP3      6291            0.0000000000
     36222      6427  TIP3      H1             16.1309626420       -6.9654567061      -44.1300580903  TIP3      6291            0.0000000000
     36223      6427  TIP3      H2             15.7286073235       -8.2782171982      -44.7835869823  TIP3      6291            0.0000000000
     36224      6428  TIP3      OH2            17.4028670415       -5.9368894134      -43.8423053014  TIP3      6292            0.0000000000
     36225      6428  TIP3      H1             17.3262411641       -5.7024027015      -42.9021526336  TIP3      6292            0.0000000000
     36226      6428  TIP3      H2             18.1063281853       -5.3719545878      -44.2031178542  TIP3      6292            0.0000000000
     36227      6429  TIP3      OH2            21.4556803338      -13.9264263285      -42.4827072391  TIP3      6293            0.0000000000
     36228      6429  TIP3      H1             20.5961066765      -14.0323780083      -42.9090235181  TIP3      6293            0.0000000000
     36229      6429  TIP3      H2             21.9511974864      -13.3922519516      -43.1283834133  TIP3      6293            0.0000000000
     36230      6430  TIP3      OH2            22.1932828068        0.5535407403      -44.3418015830  TIP3      6294            0.0000000000
     36231      6430  TIP3      H1             22.4384205997        1.4048573092      -43.9277167440  TIP3      6294            0.0000000000
     36232      6430  TIP3      H2             23.0115542879        0.2677877770      -44.7585538702  TIP3      6294            0.0000000000
     36233      6431  TIP3      OH2            18.4866545667        2.6945533516      -44.3058487788  TIP3      6295            0.0000000000
     36234      6431  TIP3      H1             18.9744159323        1.8607767960      -44.4186343535  TIP3      6295            0.0000000000
     36235      6431  TIP3      H2             18.4601145504        2.7050743695      -43.3377099692  TIP3      6295            0.0000000000
     36236      6432  TIP3      OH2            14.6213574076      -11.2505452605      -44.2272331613  TIP3      6296            0.0000000000
     36237      6432  TIP3      H1             13.8495548520      -11.0224327999      -43.6819147661  TIP3      6296            0.0000000000
     36238      6432  TIP3      H2             14.8078146235      -12.1653533147      -43.9688264930  TIP3      6296            0.0000000000
     36239      6433  TIP3      OH2             5.5470289152      -10.3777965199      -43.1830587315  TIP3      6297            0.0000000000
     36240      6433  TIP3      H1              6.3505079361      -10.6681455145      -43.6497960259  TIP3      6297            0.0000000000
     36241      6433  TIP3      H2              5.8144832103       -9.4766916420      -42.9262339747  TIP3      6297            0.0000000000
     36242      6434  TIP3      OH2            10.3798761304       -7.8668421733      -43.8851513259  TIP3      6298            0.0000000000
     36243      6434  TIP3      H1             10.0515124455       -8.0763856924      -44.7813630219  TIP3      6298            0.0000000000
     36244      6434  TIP3      H2             11.3002693617       -7.6172073346      -44.0906834019  TIP3      6298            0.0000000000
     36245      6435  TIP3      OH2            17.0015430262       -9.8389305843      -44.5228935708  TIP3      6299            0.0000000000
     36246      6435  TIP3      H1             16.1659987602      -10.2795286318      -44.2512576290  TIP3      6299            0.0000000000
     36247      6435  TIP3      H2             17.2380429058       -9.3467906546      -43.7295109506  TIP3      6299            0.0000000000
     36248      6436  TIP3      OH2            15.3662544031       -1.7681479403      -42.6309825276  TIP3      6300            0.0000000000
     36249      6436  TIP3      H1             15.0260168555       -0.8493713530      -42.6161315151  TIP3      6300            0.0000000000
     36250      6436  TIP3      H2             15.2885782246       -2.0250480414      -41.6930474894  TIP3      6300            0.0000000000
     36251      6437  TIP3      OH2             6.9327588004       -5.6263545094      -45.0905830296  TIP3      6301            0.0000000000
     36252      6437  TIP3      H1              7.4402419674       -5.0253136988      -44.4873709263  TIP3      6301            0.0000000000
     36253      6437  TIP3      H2              6.1215938079       -5.7014963520      -44.5668154222  TIP3      6301            0.0000000000
     36254      6438  TIP3      OH2            18.6351368146       -2.3847102085      -44.4727503100  TIP3      6302            0.0000000000
     36255      6438  TIP3      H1             18.5263683634       -1.9292760197      -43.6261687109  TIP3      6302            0.0000000000
     36256      6438  TIP3      H2             17.7120597298       -2.5644774062      -44.7212461303  TIP3      6302            0.0000000000
     36257      6439  TIP3      OH2            23.0576685067        3.1533816318      -43.8201809960  TIP3      6303            0.0000000000
     36258      6439  TIP3      H1             23.7638681578        3.8008809885      -43.6479771886  TIP3      6303            0.0000000000
     36259      6439  TIP3      H2             22.3719151350        3.7110437544      -44.2221320548  TIP3      6303            0.0000000000
     36260      6440  TIP3      OH2            12.2129298920       -0.9763507854      -43.4147467699  TIP3      6304            0.0000000000
     36261      6440  TIP3      H1             12.4737099747       -1.2762500634      -42.5360373681  TIP3      6304            0.0000000000
     36262      6440  TIP3      H2             12.1177952577       -0.0053447736      -43.3012267100  TIP3      6304            0.0000000000
     36263      6441  TIP3      OH2             7.7116479919       -3.9856473165      -43.2448956133  TIP3      6305            0.0000000000
     36264      6441  TIP3      H1              7.2233633273       -3.7390769852      -42.4450282359  TIP3      6305            0.0000000000
     36265      6441  TIP3      H2              8.6144094787       -3.7197675050      -43.0013965417  TIP3      6305            0.0000000000
     36266      6442  TIP3      OH2            14.3541715325        0.7762596027      -42.2758946853  TIP3      6306            0.0000000000
     36267      6442  TIP3      H1             13.4345915930        1.0548702019      -42.4248828470  TIP3      6306            0.0000000000
     36268      6442  TIP3      H2             14.8135077168        1.3394489229      -42.9310044161  TIP3      6306            0.0000000000
     36269      6443  TIP3      OH2            11.8014164279        1.7134432401      -42.8809908371  TIP3      6307            0.0000000000
     36270      6443  TIP3      H1             11.9129740150        2.5513642170      -43.3773905302  TIP3      6307            0.0000000000
     36271      6443  TIP3      H2             11.5542446763        2.0763593754      -42.0096769390  TIP3      6307            0.0000000000
     36272      6444  TIP3      OH2            10.6117919514      -12.3172568037      -43.2425351572  TIP3      6308            0.0000000000
     36273      6444  TIP3      H1             10.3573094241      -11.5296829620      -42.7216447450  TIP3      6308            0.0000000000
     36274      6444  TIP3      H2             11.5513044505      -12.3851072587      -43.0134289706  TIP3      6308            0.0000000000
     36275      6445  TIP3      OH2             8.9717114227       -0.6000772824      -44.3754395691  TIP3      6309            0.0000000000
     36276      6445  TIP3      H1              9.1638849533        0.0567252622      -43.6881423970  TIP3      6309            0.0000000000
     36277      6445  TIP3      H2              9.4522539367       -1.3799602268      -44.0526208067  TIP3      6309            0.0000000000
     36278      6446  TIP3      OH2             6.5706951845       -8.3486477354      -45.2219108303  TIP3      6310            0.0000000000
     36279      6446  TIP3      H1              6.6844489522       -7.4549760221      -44.8509651024  TIP3      6310            0.0000000000
     36280      6446  TIP3      H2              5.6330734289       -8.3202783662      -45.4530611708  TIP3      6310            0.0000000000
     36281      6447  TIP3      OH2            11.2885580745       -4.9674091400      -43.6597446682  TIP3      6311            0.0000000000
     36282      6447  TIP3      H1             11.0382355449       -5.5776460801      -42.9464046024  TIP3      6311            0.0000000000
     36283      6447  TIP3      H2             12.0075197401       -5.4571183811      -44.1212743453  TIP3      6311            0.0000000000
     36284      6448  TIP3      OH2            12.7908624908       -6.7563284175      -44.9085574625  TIP3      6312            0.0000000000
     36285      6448  TIP3      H1             12.7685030710       -6.9171102014      -45.8694449053  TIP3      6312            0.0000000000
     36286      6448  TIP3      H2             13.7096098761       -7.0466442180      -44.6943679887  TIP3      6312            0.0000000000
     36287      6449  TIP3      OH2            12.6869653964        4.0792250425      -43.8216513900  TIP3      6313            0.0000000000
     36288      6449  TIP3      H1             13.5882750341        4.0694003944      -44.1830040361  TIP3      6313            0.0000000000
     36289      6449  TIP3      H2             12.1430684638        4.0686662256      -44.6445849302  TIP3      6313            0.0000000000
     36290      6450  TIP3      OH2             6.2714531298       -1.2315092482      -44.1534888322  TIP3      6314            0.0000000000
     36291      6450  TIP3      H1              7.2303673207       -1.1050018304      -44.3169993695  TIP3      6314            0.0000000000
     36292      6450  TIP3      H2              5.9941856978       -1.4952270724      -45.0508094526  TIP3      6314            0.0000000000
     36293      6451  TIP3      OH2            23.5581872434       -6.3706260128      -43.7198265808  TIP3      6315            0.0000000000
     36294      6451  TIP3      H1             23.0451356505       -6.3382335769      -44.5517097913  TIP3      6315            0.0000000000
     36295      6451  TIP3      H2             23.2461266223       -5.5516247273      -43.2912316992  TIP3      6315            0.0000000000
     36296      6452  TIP3      OH2            21.5351567393       -8.3879515613      -44.7862169683  TIP3      6316            0.0000000000
     36297      6452  TIP3      H1             21.6435079643       -7.9761299694      -45.6810757636  TIP3      6316            0.0000000000
     36298      6452  TIP3      H2             21.6295053502       -9.3181746230      -45.0112377909  TIP3      6316            0.0000000000
     36299      6453  TIP3      OH2            22.5813235848      -12.0429084027      -44.4756778998  TIP3      6317            0.0000000000
     36300      6453  TIP3      H1             22.8585141200      -11.7855666234      -45.3785069057  TIP3      6317            0.0000000000
     36301      6453  TIP3      H2             23.1527459000      -11.4550923301      -43.9399123680  TIP3      6317            0.0000000000
     36302      6454  TIP3      OH2             6.5877294461      -13.9539783872      -43.0988246465  TIP3      6318            0.0000000000
     36303      6454  TIP3      H1              7.2779930141      -13.3063116494      -43.3663641125  TIP3      6318            0.0000000000
     36304      6454  TIP3      H2              6.2051080857      -13.4320425964      -42.3751691739  TIP3      6318            0.0000000000
     36305      6455  TIP3      OH2             7.9797781245      -11.9513727679      -44.3399277945  TIP3      6319            0.0000000000
     36306      6455  TIP3      H1              8.1711833439      -12.1073880013      -45.2879654924  TIP3      6319            0.0000000000
     36307      6455  TIP3      H2              8.8529592279      -12.0867560244      -43.9274508221  TIP3      6319            0.0000000000
     36308      6456  TIP3      OH2            15.5413191381        2.7403783449      -44.0561333142  TIP3      6320            0.0000000000
     36309      6456  TIP3      H1             16.5080412781        2.8323168846      -44.1133916748  TIP3      6320            0.0000000000
     36310      6456  TIP3      H2             15.2704108777        2.9369820042      -44.9768180868  TIP3      6320            0.0000000000
     36311      6457  TIP3      OH2             8.1919627607        3.3423461689      -44.9003987703  TIP3      6321            0.0000000000
     36312      6457  TIP3      H1              7.4933479060        3.8417469048      -44.4339738909  TIP3      6321            0.0000000000
     36313      6457  TIP3      H2              8.8167727872        3.2049594405      -44.1864946142  TIP3      6321            0.0000000000
     36314      6458  TIP3      OH2            24.2504542660      -10.2257730846      -43.2173288617  TIP3      6322            0.0000000000
     36315      6458  TIP3      H1             25.1353151594      -10.1964586971      -43.6482516570  TIP3      6322            0.0000000000
     36316      6458  TIP3      H2             24.0905201964       -9.2801789396      -43.0771434225  TIP3      6322            0.0000000000
     36317      6459  TIP3      OH2            29.2381200482       -8.2782548841      -44.0055934518  TIP3      6323            0.0000000000
     36318      6459  TIP3      H1             28.7996974706       -8.1721893590      -44.8760226989  TIP3      6323            0.0000000000
     36319      6459  TIP3      H2             30.1053737901       -7.8794579430      -44.1749735493  TIP3      6323            0.0000000000
     36320      6460  TIP3      OH2            26.1965192647       -5.9477638396      -44.9153030950  TIP3      6324            0.0000000000
     36321      6460  TIP3      H1             26.5643127620       -5.1675725347      -44.4342851134  TIP3      6324            0.0000000000
     36322      6460  TIP3      H2             25.3187915818       -5.9800653396      -44.4759369343  TIP3      6324            0.0000000000
     36323      6461  TIP3      OH2            30.1691801507       -0.8545916994      -43.5895836110  TIP3      6325            0.0000000000
     36324      6461  TIP3      H1             30.2869745868       -1.1902503249      -42.6897008536  TIP3      6325            0.0000000000
     36325      6461  TIP3      H2             30.2391096024        0.1084394348      -43.4112362328  TIP3      6325            0.0000000000
     36326      6462  TIP3      OH2            26.4514086762       -3.5907813676      -43.5116047022  TIP3      6326            0.0000000000
     36327      6462  TIP3      H1             25.9640035104       -3.6125180100      -42.6746411698  TIP3      6326            0.0000000000
     36328      6462  TIP3      H2             27.3341655648       -3.3110435757      -43.1840405161  TIP3      6326            0.0000000000
     36329      6463  TIP3      OH2            30.0994970963        1.8687816452      -42.9669251917  TIP3      6327            0.0000000000
     36330      6463  TIP3      H1             30.2279868980        2.7622475321      -43.3640797152  TIP3      6327            0.0000000000
     36331      6463  TIP3      H2             30.4688697748        1.9831381400      -42.0712483447  TIP3      6327            0.0000000000
     36332      6464  TIP3      OH2            28.9682759856      -11.0704253175      -43.3396023813  TIP3      6328            0.0000000000
     36333      6464  TIP3      H1             28.9504716101      -10.0982566149      -43.2137879777  TIP3      6328            0.0000000000
     36334      6464  TIP3      H2             29.7098199620      -11.3153435560      -42.7738626098  TIP3      6328            0.0000000000
     36335      6465  TIP3      OH2            27.5234542089       -0.6223024749      -43.9785392996  TIP3      6329            0.0000000000
     36336      6465  TIP3      H1             28.4641425248       -0.7459079693      -43.7354789926  TIP3      6329            0.0000000000
     36337      6465  TIP3      H2             27.5925254941       -0.4592780373      -44.9378564229  TIP3      6329            0.0000000000
     36338      6466  TIP3      OH2            25.9520062907       -8.6796227298      -44.8195714079  TIP3      6330            0.0000000000
     36339      6466  TIP3      H1             26.3006456275       -7.7655016379      -44.7555298439  TIP3      6330            0.0000000000
     36340      6466  TIP3      H2             25.0111209052       -8.5304353953      -44.9665974146  TIP3      6330            0.0000000000
     36341      6467  TIP3      OH2            30.4144358998       -5.2262971331      -43.9381554776  TIP3      6331            0.0000000000
     36342      6467  TIP3      H1             30.3726783774       -5.5041313764      -43.0081857296  TIP3      6331            0.0000000000
     36343      6467  TIP3      H2             31.1131403404       -5.7945579740      -44.3172955516  TIP3      6331            0.0000000000
     36344      6468  TIP3      OH2            31.7941361332       -7.3746318283      -45.0701192352  TIP3      6332            0.0000000000
     36345      6468  TIP3      H1             31.4806750280       -7.9658216650      -45.7789704276  TIP3      6332            0.0000000000
     36346      6468  TIP3      H2             32.7298163913       -7.2641017222      -45.2799490611  TIP3      6332            0.0000000000
     36347      6469  TIP3      OH2            31.0505062785        4.2297745154      -44.0944208384  TIP3      6333            0.0000000000
     36348      6469  TIP3      H1             31.9869708215        4.0057867282      -44.1022556464  TIP3      6333            0.0000000000
     36349      6469  TIP3      H2             30.8903185186        4.3531866165      -45.0498964785  TIP3      6333            0.0000000000
     36350      6470  TIP3      OH2            24.8678527397       -1.2061347224      -44.0419561965  TIP3      6334            0.0000000000
     36351      6470  TIP3      H1             25.8513729489       -1.1905295384      -43.9620229553  TIP3      6334            0.0000000000
     36352      6470  TIP3      H2             24.7753987571       -1.4120641525      -44.9909378785  TIP3      6334            0.0000000000
     36353      6471  TIP3      OH2            25.0067862934      -13.6397038006      -43.3409562610  TIP3      6335            0.0000000000
     36354      6471  TIP3      H1             25.7860076281      -13.1801661184      -43.7405262358  TIP3      6335            0.0000000000
     36355      6471  TIP3      H2             25.0710824779      -13.2311192608      -42.4667620511  TIP3      6335            0.0000000000
     36356      6472  TIP3      OH2            26.7876662136      -12.2311292062      -44.6499735752  TIP3      6336            0.0000000000
     36357      6472  TIP3      H1             27.0197540973      -12.2845019037      -45.5986175958  TIP3      6336            0.0000000000
     36358      6472  TIP3      H2             27.6261827639      -11.9683751742      -44.2088125411  TIP3      6336            0.0000000000
     36359      6473  TIP3      OH2            27.0061946754        3.6638025686      -44.9683120913  TIP3      6337            0.0000000000
     36360      6473  TIP3      H1             26.2330890989        4.0740211481      -44.5500862340  TIP3      6337            0.0000000000
     36361      6473  TIP3      H2             27.4658746521        3.2509833287      -44.2327860182  TIP3      6337            0.0000000000
     36362      6474  TIP3      OH2           -22.4701480897       11.3951348959      -44.3970798609  TIP3      6338            0.0000000000
     36363      6474  TIP3      H1            -21.7180211362       12.0175390600      -44.2754626918  TIP3      6338            0.0000000000
     36364      6474  TIP3      H2            -22.3132875435       11.0749179633      -45.2954601550  TIP3      6338            0.0000000000
     36365      6475  TIP3      OH2           -20.3909872878       12.9490524449      -43.8794258504  TIP3      6339            0.0000000000
     36366      6475  TIP3      H1            -20.4826776548       13.0067770464      -42.9134763533  TIP3      6339            0.0000000000
     36367      6475  TIP3      H2            -19.4757572901       13.1763876917      -44.0977269453  TIP3      6339            0.0000000000
     36368      6476  TIP3      OH2           -16.0595371664        4.9656693873      -42.5469756092  TIP3      6340            0.0000000000
     36369      6476  TIP3      H1            -16.9557386271        5.1799221114      -42.8322055954  TIP3      6340            0.0000000000
     36370      6476  TIP3      H2            -15.5185877411        5.4964376945      -43.1670430318  TIP3      6340            0.0000000000
     36371      6477  TIP3      OH2           -15.4790402125       19.3241412197      -44.1847427481  TIP3      6341            0.0000000000
     36372      6477  TIP3      H1            -15.4299900575       20.2915760785      -44.1324229505  TIP3      6341            0.0000000000
     36373      6477  TIP3      H2            -14.7934718140       19.1334573447      -44.8386685165  TIP3      6341            0.0000000000
     36374      6478  TIP3      OH2           -19.1874968950       21.5737978650      -44.3393456707  TIP3      6342            0.0000000000
     36375      6478  TIP3      H1            -19.0143793624       20.6375893029      -44.5229426178  TIP3      6342            0.0000000000
     36376      6478  TIP3      H2            -18.6981980418       21.6334221045      -43.5041575256  TIP3      6342            0.0000000000
     36377      6479  TIP3      OH2           -23.3048602139        7.5541146716      -44.5683252792  TIP3      6343            0.0000000000
     36378      6479  TIP3      H1            -23.8140352675        7.8445653989      -43.7975939250  TIP3      6343            0.0000000000
     36379      6479  TIP3      H2            -22.8466494519        6.7634211130      -44.2440224359  TIP3      6343            0.0000000000
     36380      6480  TIP3      OH2           -31.8301972979        8.1874468155      -43.4960168894  TIP3      6344            0.0000000000
     36381      6480  TIP3      H1            -31.3541463093        8.6944026547      -44.1690092861  TIP3      6344            0.0000000000
     36382      6480  TIP3      H2            -32.7117346812        8.1061301367      -43.8882046379  TIP3      6344            0.0000000000
     36383      6481  TIP3      OH2           -27.3485039511       11.2975966665      -44.2276912131  TIP3      6345            0.0000000000
     36384      6481  TIP3      H1            -27.5548803481       11.0847477579      -45.1687704725  TIP3      6345            0.0000000000
     36385      6481  TIP3      H2            -26.3831894842       11.4270361850      -44.2800738931  TIP3      6345            0.0000000000
     36386      6482  TIP3      OH2           -20.5581619849        8.7189587622      -44.6327664995  TIP3      6346            0.0000000000
     36387      6482  TIP3      H1            -21.4853261414        8.7733659891      -44.3442872336  TIP3      6346            0.0000000000
     36388      6482  TIP3      H2            -20.2090851458        9.5906309172      -44.4175288019  TIP3      6346            0.0000000000
     36389      6483  TIP3      OH2           -22.0805219534       17.1308449785      -42.6551589506  TIP3      6347            0.0000000000
     36390      6483  TIP3      H1            -22.7665860589       17.8041525335      -42.8043435792  TIP3      6347            0.0000000000
     36391      6483  TIP3      H2            -22.2236381587       16.9100425503      -41.7163090137  TIP3      6347            0.0000000000
     36392      6484  TIP3      OH2           -32.0099221030       12.8293112246      -43.6605971524  TIP3      6348            0.0000000000
     36393      6484  TIP3      H1            -31.2769567762       13.4837607214      -43.6539378282  TIP3      6348            0.0000000000
     36394      6484  TIP3      H2            -32.7948268952       13.3889205698      -43.5311948512  TIP3      6348            0.0000000000
     36395      6485  TIP3      OH2           -19.1059427583       16.6280120192      -44.2601091135  TIP3      6349            0.0000000000
     36396      6485  TIP3      H1            -19.3156941977       17.1078156890      -43.4484134791  TIP3      6349            0.0000000000
     36397      6485  TIP3      H2            -20.0075139612       16.4301236034      -44.5652348914  TIP3      6349            0.0000000000
     36398      6486  TIP3      OH2           -14.6529408088       22.0451933971      -44.0712665771  TIP3      6350            0.0000000000
     36399      6486  TIP3      H1            -13.7756759262       22.2495413620      -43.7177532940  TIP3      6350            0.0000000000
     36400      6486  TIP3      H2            -15.2333149946       22.4987665444      -43.4326448872  TIP3      6350            0.0000000000
     36401      6487  TIP3      OH2           -24.8567566073       18.0675258573      -43.3375741275  TIP3      6351            0.0000000000
     36402      6487  TIP3      H1            -25.3944189941       17.4869861558      -42.7638826556  TIP3      6351            0.0000000000
     36403      6487  TIP3      H2            -25.1387752168       18.9679941044      -43.0632679379  TIP3      6351            0.0000000000
     36404      6488  TIP3      OH2           -29.9702858583       14.8988425349      -43.2999201321  TIP3      6352            0.0000000000
     36405      6488  TIP3      H1            -30.5127529169       15.4578360274      -42.6972457175  TIP3      6352            0.0000000000
     36406      6488  TIP3      H2            -29.0908338636       15.3068610376      -43.2222057562  TIP3      6352            0.0000000000
     36407      6489  TIP3      OH2           -23.2649848416       20.5575740171      -41.9733769640  TIP3      6353            0.0000000000
     36408      6489  TIP3      H1            -24.2126327597       20.6404685804      -42.2178576615  TIP3      6353            0.0000000000
     36409      6489  TIP3      H2            -22.8128125740       20.8379634712      -42.8025792873  TIP3      6353            0.0000000000
     36410      6490  TIP3      OH2           -25.8458086721       20.5817130466      -42.6778217050  TIP3      6354            0.0000000000
     36411      6490  TIP3      H1            -25.8902879257       21.3507461975      -43.2767621715  TIP3      6354            0.0000000000
     36412      6490  TIP3      H2            -26.3033219747       20.9178796829      -41.8850396543  TIP3      6354            0.0000000000
     36413      6491  TIP3      OH2           -27.7656186055        7.5272515294      -43.7968732420  TIP3      6355            0.0000000000
     36414      6491  TIP3      H1            -28.0589797644        8.4382485224      -43.6464805974  TIP3      6355            0.0000000000
     36415      6491  TIP3      H2            -27.0732203897        7.4924181782      -43.0979582986  TIP3      6355            0.0000000000
     36416      6492  TIP3      OH2           -28.6995828875       18.1425073620      -44.5435605951  TIP3      6356            0.0000000000
     36417      6492  TIP3      H1            -28.2620771830       18.9469974328      -44.2379266328  TIP3      6356            0.0000000000
     36418      6492  TIP3      H2            -28.6643619476       18.2449351528      -45.5140935339  TIP3      6356            0.0000000000
     36419      6493  TIP3      OH2           -31.2439902267       10.3789231701      -45.2852991841  TIP3      6357            0.0000000000
     36420      6493  TIP3      H1            -31.0092830966       11.2164807952      -44.8549446569  TIP3      6357            0.0000000000
     36421      6493  TIP3      H2            -32.2064840836       10.4794887526      -45.2801190587  TIP3      6357            0.0000000000
     36422      6494  TIP3      OH2           -26.5361993366       13.8555448649      -43.7853325631  TIP3      6358            0.0000000000
     36423      6494  TIP3      H1            -27.1512776970       13.0969694936      -43.8631726155  TIP3      6358            0.0000000000
     36424      6494  TIP3      H2            -25.7414276064       13.5031676446      -44.2552098505  TIP3      6358            0.0000000000
     36425      6495  TIP3      OH2           -24.8274127857       12.3986916890      -45.1182203149  TIP3      6359            0.0000000000
     36426      6495  TIP3      H1            -24.5809973793       12.4450986363      -46.0615153526  TIP3      6359            0.0000000000
     36427      6495  TIP3      H2            -24.0204555252       11.9732025591      -44.7398208795  TIP3      6359            0.0000000000
     36428      6496  TIP3      OH2           -24.9265593165       23.1374859767      -43.5370481634  TIP3      6360            0.0000000000
     36429      6496  TIP3      H1            -23.9754041325       22.9894402207      -43.4634647798  TIP3      6360            0.0000000000
     36430      6496  TIP3      H2            -25.0632339824       23.1718350789      -44.5146809099  TIP3      6360            0.0000000000
     36431      6497  TIP3      OH2           -31.3403284690       17.5338272579      -44.3820527441  TIP3      6361            0.0000000000
     36432      6497  TIP3      H1            -30.3945818295       17.7681310200      -44.4684217584  TIP3      6361            0.0000000000
     36433      6497  TIP3      H2            -31.5227740282       17.2041726268      -45.2771923705  TIP3      6361            0.0000000000
     36434      6498  TIP3      OH2           -14.4260624512       12.2985688768      -43.8148697992  TIP3      6362            0.0000000000
     36435      6498  TIP3      H1            -14.8014681525       12.2789241965      -44.7203860742  TIP3      6362            0.0000000000
     36436      6498  TIP3      H2            -14.8076710962       13.1380549501      -43.5022742528  TIP3      6362            0.0000000000
     36437      6499  TIP3      OH2           -16.6581331731       10.3479903748       45.9042824051  TIP3      6363            0.0000000000
     36438      6499  TIP3      H1            -16.3555981618       10.7218633640       45.0411100719  TIP3      6363            0.0000000000
     36439      6499  TIP3      H2            -16.5332560866        9.4067113322       45.7659991530  TIP3      6363            0.0000000000
     36440      6500  TIP3      OH2           -15.1926289871        6.7391260282      -44.5131426812  TIP3      6364            0.0000000000
     36441      6500  TIP3      H1            -14.9738476636        6.9218238251      -45.4555457681  TIP3      6364            0.0000000000
     36442      6500  TIP3      H2            -14.5652178591        7.3683478385      -44.0930483051  TIP3      6364            0.0000000000
     36443      6501  TIP3      OH2           -30.9990744473        4.8426731739      -42.9564458830  TIP3      6365            0.0000000000
     36444      6501  TIP3      H1            -30.3788696821        5.2349088807      -43.6140730855  TIP3      6365            0.0000000000
     36445      6501  TIP3      H2            -31.2057454941        5.6107344270      -42.4073991540  TIP3      6365            0.0000000000
     36446      6502  TIP3      OH2           -29.5544584492        5.9219516938      -44.8899954047  TIP3      6366            0.0000000000
     36447      6502  TIP3      H1            -29.4472383999        6.2045147020      -45.8261746474  TIP3      6366            0.0000000000
     36448      6502  TIP3      H2            -28.8716282429        6.4934817646      -44.4603241373  TIP3      6366            0.0000000000
     36449      6503  TIP3      OH2           -22.1491842763       21.7938221378      -44.1332459015  TIP3      6367            0.0000000000
     36450      6503  TIP3      H1            -21.1884481514       21.9292751737      -44.0629306766  TIP3      6367            0.0000000000
     36451      6503  TIP3      H2            -22.2844113424       22.0004334099      -45.0808122898  TIP3      6367            0.0000000000
     36452      6504  TIP3      OH2           -28.9923756200       22.1850329039      -44.6503356188  TIP3      6368            0.0000000000
     36453      6504  TIP3      H1            -29.8827470474       22.4830062171      -44.3899028986  TIP3      6368            0.0000000000
     36454      6504  TIP3      H2            -28.5780021287       22.0997294370      -43.7763270713  TIP3      6368            0.0000000000
     36455      6505  TIP3      OH2            -3.5982171456       11.2323340003      -44.0354996419  TIP3      6369            0.0000000000
     36456      6505  TIP3      H1             -2.9053324201       11.9003878779      -43.8479128035  TIP3      6369            0.0000000000
     36457      6505  TIP3      H2             -3.2588613347       10.8746778698      -44.8699282745  TIP3      6369            0.0000000000
     36458      6506  TIP3      OH2            -1.5597830011       13.0486643618      -43.8809698978  TIP3      6370            0.0000000000
     36459      6506  TIP3      H1             -1.3660315067       12.9708562383      -42.9368855389  TIP3      6370            0.0000000000
     36460      6506  TIP3      H2             -0.7393461822       13.3808305669      -44.2788290230  TIP3      6370            0.0000000000
     36461      6507  TIP3      OH2             2.5617324754        4.6926610310      -42.5693196225  TIP3      6371            0.0000000000
     36462      6507  TIP3      H1              1.8009949136        4.6014555495      -43.1600761073  TIP3      6371            0.0000000000
     36463      6507  TIP3      H2              3.0925570047        5.3319912774      -43.0996527278  TIP3      6371            0.0000000000
     36464      6508  TIP3      OH2             2.9626313329       19.1820801780      -43.6930157019  TIP3      6372            0.0000000000
     36465      6508  TIP3      H1              3.1869890766       20.1230936923      -43.8750578651  TIP3      6372            0.0000000000
     36466      6508  TIP3      H2              3.6625759588       18.7740498991      -44.2360537913  TIP3      6372            0.0000000000
     36467      6509  TIP3      OH2            -0.3797101985       21.6722826741      -44.4109608440  TIP3      6373            0.0000000000
     36468      6509  TIP3      H1             -0.1526847440       20.7282946932      -44.4517028916  TIP3      6373            0.0000000000
     36469      6509  TIP3      H2             -0.0963222610       21.8895739433      -43.5106875156  TIP3      6373            0.0000000000
     36470      6510  TIP3      OH2            -4.0708044229        7.6458448499      -44.5907753983  TIP3      6374            0.0000000000
     36471      6510  TIP3      H1             -4.3381642580        8.1797070071      -43.8298680646  TIP3      6374            0.0000000000
     36472      6510  TIP3      H2             -3.6548194767        6.8887822962      -44.1592765279  TIP3      6374            0.0000000000
     36473      6511  TIP3      OH2           -13.4569833396        8.4395161300      -43.4509068408  TIP3      6375            0.0000000000
     36474      6511  TIP3      H1            -12.8148605581        8.6690971212      -44.1453141785  TIP3      6375            0.0000000000
     36475      6511  TIP3      H2            -13.3857124178        9.2701335490      -42.9558895046  TIP3      6375            0.0000000000
     36476      6512  TIP3      OH2            -8.5576256836       11.0491084048      -43.7749688617  TIP3      6376            0.0000000000
     36477      6512  TIP3      H1             -8.8868997776       10.9504975052      -44.6874410914  TIP3      6376            0.0000000000
     36478      6512  TIP3      H2             -7.6064896843       11.1396557986      -43.9212971946  TIP3      6376            0.0000000000
     36479      6513  TIP3      OH2            -1.4839391577        8.7246499090      -43.9730444202  TIP3      6377            0.0000000000
     36480      6513  TIP3      H1             -2.2956790766        8.4887821575      -44.4308807233  TIP3      6377            0.0000000000
     36481      6513  TIP3      H2             -1.1933848970        9.4671074130      -44.5285907207  TIP3      6377            0.0000000000
     36482      6514  TIP3      OH2            -3.3512964294       17.0985676243      -42.7762315266  TIP3      6378            0.0000000000
     36483      6514  TIP3      H1             -3.5766746783       18.0334510564      -42.6404494537  TIP3      6378            0.0000000000
     36484      6514  TIP3      H2             -3.6162510217       16.7024217968      -41.9286023557  TIP3      6378            0.0000000000
     36485      6515  TIP3      OH2           -11.8212466428       13.5835647950      -44.9040578222  TIP3      6379            0.0000000000
     36486      6515  TIP3      H1            -11.3884351213       14.3334974785      -44.4434848855  TIP3      6379            0.0000000000
     36487      6515  TIP3      H2            -12.5514153770       13.3642976727      -44.3038251277  TIP3      6379            0.0000000000
     36488      6516  TIP3      OH2            -0.2625721820       16.4339675612      -44.5314045352  TIP3      6380            0.0000000000
     36489      6516  TIP3      H1             -0.4108223006       16.8890203403      -43.6978598383  TIP3      6380            0.0000000000
     36490      6516  TIP3      H2             -1.1812048956       16.2747681038      -44.8021316067  TIP3      6380            0.0000000000
     36491      6517  TIP3      OH2             4.2421874407       21.4923037356      -44.0701168132  TIP3      6381            0.0000000000
     36492      6517  TIP3      H1              5.0097979398       21.5455446355      -44.6674736789  TIP3      6381            0.0000000000
     36493      6517  TIP3      H2              3.8226982708       22.3439551362      -44.2823368609  TIP3      6381            0.0000000000
     36494      6518  TIP3      OH2            -6.6860169903       18.2451989559      -43.3383936733  TIP3      6382            0.0000000000
     36495      6518  TIP3      H1             -6.2114497094       18.2555733526      -42.4939549553  TIP3      6382            0.0000000000
     36496      6518  TIP3      H2             -6.8110434436       19.1998163140      -43.4898397795  TIP3      6382            0.0000000000
     36497      6519  TIP3      OH2           -10.9344387840       15.5854862776      -43.3126889658  TIP3      6383            0.0000000000
     36498      6519  TIP3      H1            -11.3053167565       15.0583105653      -42.5665564328  TIP3      6383            0.0000000000
     36499      6519  TIP3      H2             -9.9989460389       15.6414193031      -43.0244807751  TIP3      6383            0.0000000000
     36500      6520  TIP3      OH2            -4.5357970610       19.9852104824      -42.4264099285  TIP3      6384            0.0000000000
     36501      6520  TIP3      H1             -5.3935303630       20.3245802629      -42.7396755166  TIP3      6384            0.0000000000
     36502      6520  TIP3      H2             -3.9305488390       20.6230814350      -42.8627857098  TIP3      6384            0.0000000000
     36503      6521  TIP3      OH2            -7.1047360782       20.9904613669      -43.0881968028  TIP3      6385            0.0000000000
     36504      6521  TIP3      H1             -7.8271450638       21.3845526646      -43.6058544139  TIP3      6385            0.0000000000
     36505      6521  TIP3      H2             -7.5024101978       21.0311238968      -42.2006344732  TIP3      6385            0.0000000000
     36506      6522  TIP3      OH2            -8.0311866042        6.9949777967      -43.4089249654  TIP3      6386            0.0000000000
     36507      6522  TIP3      H1             -8.4370008852        7.5930766071      -42.7338165598  TIP3      6386            0.0000000000
     36508      6522  TIP3      H2             -7.1020512737        7.1275297202      -43.1770166218  TIP3      6386            0.0000000000
     36509      6523  TIP3      OH2            -9.5113620030       18.2736976293      -44.5666758936  TIP3      6387            0.0000000000
     36510      6523  TIP3      H1             -9.5100240424       18.1433763972      -43.6039856011  TIP3      6387            0.0000000000
     36511      6523  TIP3      H2             -8.8704381344       17.5890857367      -44.8193639310  TIP3      6387            0.0000000000
     36512      6524  TIP3      OH2           -12.4901225784       10.5763588735      -45.2247532533  TIP3      6388            0.0000000000
     36513      6524  TIP3      H1            -12.1527403871       11.4578647434      -44.9946514944  TIP3      6388            0.0000000000
     36514      6524  TIP3      H2            -13.4343783668       10.7818280658      -45.2834986446  TIP3      6388            0.0000000000
     36515      6525  TIP3      OH2            -7.7487854662       13.9920861344      -43.8660021849  TIP3      6389            0.0000000000
     36516      6525  TIP3      H1             -8.2874868448       13.2175864434      -43.6310232576  TIP3      6389            0.0000000000
     36517      6525  TIP3      H2             -6.9129708420       13.5599600629      -44.1725796824  TIP3      6389            0.0000000000
     36518      6526  TIP3      OH2            -5.9515616640       12.3407864792      -44.8711802462  TIP3      6390            0.0000000000
     36519      6526  TIP3      H1             -5.5627919324       12.3481500097      -45.7623260362  TIP3      6390            0.0000000000
     36520      6526  TIP3      H2             -5.2335998228       11.8690540427      -44.3905262732  TIP3      6390            0.0000000000
     36521      6527  TIP3      OH2            -6.3196690145       23.6503060133      -44.0006787175  TIP3      6391            0.0000000000
     36522      6527  TIP3      H1             -5.5400221135       23.1329322189      -44.2698241099  TIP3      6391            0.0000000000
     36523      6527  TIP3      H2             -6.9226553605       23.4663219354      -44.7443265226  TIP3      6391            0.0000000000
     36524      6528  TIP3      OH2           -12.7022498430       17.4537303894      -44.2994720881  TIP3      6392            0.0000000000
     36525      6528  TIP3      H1            -11.9471961205       16.8723023093      -44.0837233584  TIP3      6392            0.0000000000
     36526      6528  TIP3      H2            -12.7270368050       17.3672616899      -45.2724190239  TIP3      6392            0.0000000000
     36527      6529  TIP3      OH2             4.3919068745       12.3774791310      -43.5017079110  TIP3      6393            0.0000000000
     36528      6529  TIP3      H1              4.2734409115       12.7037961370      -44.4086985829  TIP3      6393            0.0000000000
     36529      6529  TIP3      H2              4.2143410203       13.2036675220      -43.0271547011  TIP3      6393            0.0000000000
     36530      6530  TIP3      OH2             2.4665320874       10.1889817731      -44.9734715331  TIP3      6394            0.0000000000
     36531      6530  TIP3      H1              2.6343082740       10.7329711205      -45.7755411460  TIP3      6394            0.0000000000
     36532      6530  TIP3      H2              2.5565742371        9.3035464106      -45.3444240966  TIP3      6394            0.0000000000
     36533      6531  TIP3      OH2             4.0471907496        6.4030554871      -44.1100944636  TIP3      6395            0.0000000000
     36534      6531  TIP3      H1              3.8344778975        6.7938615941      -44.9790574378  TIP3      6395            0.0000000000
     36535      6531  TIP3      H2              4.6302056068        7.1021393294      -43.7331063778  TIP3      6395            0.0000000000
     36536      6532  TIP3      OH2           -12.0784639873        5.0124718239      -43.0167135229  TIP3      6396            0.0000000000
     36537      6532  TIP3      H1            -11.3245650999        5.5039222576      -43.4213481856  TIP3      6396            0.0000000000
     36538      6532  TIP3      H2            -12.2722404027        5.6428366089      -42.3087803506  TIP3      6396            0.0000000000
     36539      6533  TIP3      OH2           -10.4419474901        6.3371505238      -44.6287232472  TIP3      6397            0.0000000000
     36540      6533  TIP3      H1            -10.3195380592        6.6142015214      -45.5555004882  TIP3      6397            0.0000000000
     36541      6533  TIP3      H2             -9.5848908532        6.5528182185      -44.2046465527  TIP3      6397            0.0000000000
     36542      6534  TIP3      OH2            -3.1929640447       21.6607030723      -44.1603975978  TIP3      6398            0.0000000000
     36543      6534  TIP3      H1             -2.2248320485       21.7175001190      -44.2871699636  TIP3      6398            0.0000000000
     36544      6534  TIP3      H2             -3.5084382645       21.8118105327      -45.0717352275  TIP3      6398            0.0000000000
     36545      6535  TIP3      OH2           -10.8962774577       22.1037165869      -45.1764150471  TIP3      6399            0.0000000000
     36546      6535  TIP3      H1            -11.3273773173       22.6599371306      -44.4991436081  TIP3      6399            0.0000000000
     36547      6535  TIP3      H2            -10.3097276382       21.5502390286      -44.6570539056  TIP3      6399            0.0000000000
     36548      6536  TIP3      OH2            15.2339029270       11.2292161396      -44.3666316102  TIP3      6400            0.0000000000
     36549      6536  TIP3      H1             15.9800302702       11.8640941605      -44.2505173977  TIP3      6400            0.0000000000
     36550      6536  TIP3      H2             15.3359862903       10.9858407333      -45.2898822385  TIP3      6400            0.0000000000
     36551      6537  TIP3      OH2            17.3274307778       12.8662439231      -43.8437795360  TIP3      6401            0.0000000000
     36552      6537  TIP3      H1             17.2121710183       13.0686742638      -42.9034064061  TIP3      6401            0.0000000000
     36553      6537  TIP3      H2             18.2251741895       13.1358833431      -44.1033763447  TIP3      6401            0.0000000000
     36554      6538  TIP3      OH2            21.3394950789        5.1880760156      -42.2905852817  TIP3      6402            0.0000000000
     36555      6538  TIP3      H1             20.4221223592        4.9304282939      -42.4310087104  TIP3      6402            0.0000000000
     36556      6538  TIP3      H2             21.6128097755        5.4826972707      -43.1779020431  TIP3      6402            0.0000000000
     36557      6539  TIP3      OH2            22.0410961938       19.5795582769      -44.5479038490  TIP3      6403            0.0000000000
     36558      6539  TIP3      H1             22.3373261382       20.3574365945      -44.0379133245  TIP3      6403            0.0000000000
     36559      6539  TIP3      H2             22.8686943761       19.0820841462      -44.6699433366  TIP3      6403            0.0000000000
     36560      6540  TIP3      OH2            18.2840251467       21.4337023202      -44.1319552897  TIP3      6404            0.0000000000
     36561      6540  TIP3      H1             19.0076160314       20.7928136954      -43.9967612296  TIP3      6404            0.0000000000
     36562      6540  TIP3      H2             17.9840626060       21.5397356225      -43.2125944611  TIP3      6404            0.0000000000
     36563      6541  TIP3      OH2            14.3047949252        7.5375416152      -44.5093301946  TIP3      6405            0.0000000000
     36564      6541  TIP3      H1             13.8992428193        8.1785630646      -43.9006832042  TIP3      6405            0.0000000000
     36565      6541  TIP3      H2             14.2130627650        6.7014128463      -44.0438942938  TIP3      6405            0.0000000000
     36566      6542  TIP3      OH2             5.5716914531        8.3402024564      -43.1813839101  TIP3      6406            0.0000000000
     36567      6542  TIP3      H1              6.3738974793        8.2743507752      -43.7481325129  TIP3      6406            0.0000000000
     36568      6542  TIP3      H2              5.4813512975        9.3063123315      -43.1711787453  TIP3      6406            0.0000000000
     36569      6543  TIP3      OH2            10.3043174826       11.1217344457      -43.9163724911  TIP3      6407            0.0000000000
     36570      6543  TIP3      H1              9.9540837597       10.8629550717      -44.7953368896  TIP3      6407            0.0000000000
     36571      6543  TIP3      H2             11.2289344218       11.3256881986      -44.1625012967  TIP3      6407            0.0000000000
     36572      6544  TIP3      OH2            16.8615525815        8.5623375487      -44.0723760339  TIP3      6408            0.0000000000
     36573      6544  TIP3      H1             16.0320021225        8.1070628296      -44.2985707974  TIP3      6408            0.0000000000
     36574      6544  TIP3      H2             16.5500377794        9.3436676203      -43.5937313078  TIP3      6408            0.0000000000
     36575      6545  TIP3      OH2            15.4501569646       16.9901153014      -42.7030954953  TIP3      6409            0.0000000000
     36576      6545  TIP3      H1             15.1117113286       17.8931875044      -42.8250707565  TIP3      6409            0.0000000000
     36577      6545  TIP3      H2             15.3629829171       16.8930539013      -41.7397075775  TIP3      6409            0.0000000000
     36578      6546  TIP3      OH2             7.6027679062       13.3185693352      -44.9980949286  TIP3      6410            0.0000000000
     36579      6546  TIP3      H1              8.0030103063       14.0667197874      -44.5067972541  TIP3      6410            0.0000000000
     36580      6546  TIP3      H2              6.6752523647       13.3672177233      -44.7124126091  TIP3      6410            0.0000000000
     36581      6547  TIP3      OH2            18.6231868887       16.6505251275      -44.4958954528  TIP3      6411            0.0000000000
     36582      6547  TIP3      H1             18.6857998104       17.4439552403      -43.9402299491  TIP3      6411            0.0000000000
     36583      6547  TIP3      H2             17.6664688909       16.4669374108      -44.4759153972  TIP3      6411            0.0000000000
     36584      6548  TIP3      OH2            23.0202214321       21.9089394250      -43.4319637379  TIP3      6412            0.0000000000
     36585      6548  TIP3      H1             23.3037433122       22.2731190627      -44.2906545601  TIP3      6412            0.0000000000
     36586      6548  TIP3      H2             22.3712855826       22.6016914954      -43.1699297098  TIP3      6412            0.0000000000
     36587      6549  TIP3      OH2            12.1894122517       17.8607762659      -43.4417827720  TIP3      6413            0.0000000000
     36588      6549  TIP3      H1             12.6031676167       17.6790134399      -42.5861281685  TIP3      6413            0.0000000000
     36589      6549  TIP3      H2             11.9393908545       18.8062891928      -43.3456352975  TIP3      6413            0.0000000000
     36590      6550  TIP3      OH2             8.0110429447       15.4875174529      -43.4204299514  TIP3      6414            0.0000000000
     36591      6550  TIP3      H1              7.4378752919       15.0289426265      -42.7595464965  TIP3      6414            0.0000000000
     36592      6550  TIP3      H2              8.8633413609       15.4422215990      -42.9317987674  TIP3      6414            0.0000000000
     36593      6551  TIP3      OH2            14.2841586052       20.0869956383      -42.2623069303  TIP3      6415            0.0000000000
     36594      6551  TIP3      H1             13.3671617640       20.1695117898      -42.5834993060  TIP3      6415            0.0000000000
     36595      6551  TIP3      H2             14.7793749713       20.5516264711      -42.9754506705  TIP3      6415            0.0000000000
     36596      6552  TIP3      OH2            11.6565421134       20.4550857321      -42.8123206808  TIP3      6416            0.0000000000
     36597      6552  TIP3      H1             11.6522048092       21.3459572033      -43.2158980141  TIP3      6416            0.0000000000
     36598      6552  TIP3      H2             11.5914833354       20.6858059821      -41.8759059222  TIP3      6416            0.0000000000
     36599      6553  TIP3      OH2            10.0458382025        7.4530066358      -43.6664550112  TIP3      6417            0.0000000000
     36600      6553  TIP3      H1              9.4645097321        8.1095087763      -43.2557413595  TIP3      6417            0.0000000000
     36601      6553  TIP3      H2             10.8249673199        7.6208331084      -43.0915930175  TIP3      6417            0.0000000000
     36602      6554  TIP3      OH2             8.9211203536       17.7899810107      -44.4503584953  TIP3      6418            0.0000000000
     36603      6554  TIP3      H1              9.4695826953       17.9642356903      -43.6706392560  TIP3      6418            0.0000000000
     36604      6554  TIP3      H2              8.7044087884       16.8307784409      -44.3120000205  TIP3      6418            0.0000000000
     36605      6555  TIP3      OH2             6.7504912607       10.5199549968      -44.9212987900  TIP3      6419            0.0000000000
     36606      6555  TIP3      H1              7.2224246996       11.3561904074      -44.7781547805  TIP3      6419            0.0000000000
     36607      6555  TIP3      H2              6.0083321377       10.7849180396      -45.4814475822  TIP3      6419            0.0000000000
     36608      6556  TIP3      OH2            11.4525544846       14.0927850127      -43.8623453738  TIP3      6420            0.0000000000
     36609      6556  TIP3      H1             10.7735833050       13.4875256439      -43.5250322507  TIP3      6420            0.0000000000
     36610      6556  TIP3      H2             12.1187977809       13.4520479213      -44.2002180779  TIP3      6420            0.0000000000
     36611      6557  TIP3      OH2            12.6834146103       12.0059953235      -44.9008136119  TIP3      6421            0.0000000000
     36612      6557  TIP3      H1             12.7134569261       12.0746742288      -45.8726335380  TIP3      6421            0.0000000000
     36613      6557  TIP3      H2             13.5939594974       11.7064876094      -44.6733572665  TIP3      6421            0.0000000000
     36614      6558  TIP3      OH2            12.5071306330       22.9572040589      -43.5844266239  TIP3      6422            0.0000000000
     36615      6558  TIP3      H1             13.3753634341       22.7471875228      -43.9584455223  TIP3      6422            0.0000000000
     36616      6558  TIP3      H2             12.0442041121       23.2061402069      -44.4029207558  TIP3      6422            0.0000000000
     36617      6559  TIP3      OH2             6.2228540776       17.8986470334      -44.0705375159  TIP3      6423            0.0000000000
     36618      6559  TIP3      H1              7.1778926637       18.0903806862      -44.2021403657  TIP3      6423            0.0000000000
     36619      6559  TIP3      H2              6.0465418745       17.3577644888      -44.8517124011  TIP3      6423            0.0000000000
     36620      6560  TIP3      OH2            23.3595710396       12.4736867391      -43.5616074778  TIP3      6424            0.0000000000
     36621      6560  TIP3      H1             22.8433109532       12.2304826381      -44.3511470655  TIP3      6424            0.0000000000
     36622      6560  TIP3      H2             22.8743114981       13.2702521934      -43.2885563868  TIP3      6424            0.0000000000
     36623      6561  TIP3      OH2            21.5197665086       10.5945152335      -44.8857391066  TIP3      6425            0.0000000000
     36624      6561  TIP3      H1             21.6612960704       10.7779261057      -45.8450142994  TIP3      6425            0.0000000000
     36625      6561  TIP3      H2             21.4669621174        9.6336175085      -44.9219337408  TIP3      6425            0.0000000000
     36626      6562  TIP3      OH2            22.6746387450        6.9877389341      -44.4345562256  TIP3      6426            0.0000000000
     36627      6562  TIP3      H1             23.0396675109        6.3191758774      -45.0417661547  TIP3      6426            0.0000000000
     36628      6562  TIP3      H2             23.4546850632        7.5492679559      -44.2602330992  TIP3      6426            0.0000000000
     36629      6563  TIP3      OH2             6.7630006687        4.9351151188      -43.3701908316  TIP3      6427            0.0000000000
     36630      6563  TIP3      H1              7.1391400478        5.6604592242      -43.9188397740  TIP3      6427            0.0000000000
     36631      6563  TIP3      H2              6.6217559043        5.4604788119      -42.5688620396  TIP3      6427            0.0000000000
     36632      6564  TIP3      OH2             7.6002309089        7.1193198343      -44.7435098330  TIP3      6428            0.0000000000
     36633      6564  TIP3      H1              7.7998164308        6.9695096365      -45.6970765743  TIP3      6428            0.0000000000
     36634      6564  TIP3      H2              8.5177448149        7.2401155329      -44.4183575967  TIP3      6428            0.0000000000
     36635      6565  TIP3      OH2            15.5573308215       21.7546830922      -44.0972261070  TIP3      6429            0.0000000000
     36636      6565  TIP3      H1             16.5179914982       21.7653228068      -44.2918164344  TIP3      6429            0.0000000000
     36637      6565  TIP3      H2             15.2042263591       21.9253276003      -44.9943243007  TIP3      6429            0.0000000000
     36638      6566  TIP3      OH2             7.9346768122       21.8519223489      -44.7530401490  TIP3      6430            0.0000000000
     36639      6566  TIP3      H1              7.3615667956       22.5290888156      -44.3282950934  TIP3      6430            0.0000000000
     36640      6566  TIP3      H2              8.7862763219       21.9939170940      -44.3319213072  TIP3      6430            0.0000000000
     36641      6567  TIP3      OH2            24.5118909320        8.9801198567      -43.7347714077  TIP3      6431            0.0000000000
     36642      6567  TIP3      H1             25.3332208485        8.8191962841      -43.2525627046  TIP3      6431            0.0000000000
     36643      6567  TIP3      H2             24.1355531964        9.7586799316      -43.2943415937  TIP3      6431            0.0000000000
     36644      6568  TIP3      OH2            28.9802673794       10.2663241638      -44.2000188562  TIP3      6432            0.0000000000
     36645      6568  TIP3      H1             28.0976121304       10.6529252650      -44.3366212104  TIP3      6432            0.0000000000
     36646      6568  TIP3      H2             29.3447694028       10.3922814058      -45.1056762124  TIP3      6432            0.0000000000
     36647      6569  TIP3      OH2            25.7622870434       13.1062594077      -44.8114674319  TIP3      6433            0.0000000000
     36648      6569  TIP3      H1             26.1321782835       13.8627600520      -44.2862731979  TIP3      6433            0.0000000000
     36649      6569  TIP3      H2             24.8684253984       13.0568734100      -44.4066073433  TIP3      6433            0.0000000000
     36650      6570  TIP3      OH2            30.2859684786       17.9935579834      -43.4340272964  TIP3      6434            0.0000000000
     36651      6570  TIP3      H1             30.2456480345       17.7998976318      -42.4874221035  TIP3      6434            0.0000000000
     36652      6570  TIP3      H2             30.2759864308       18.9800983579      -43.3856888163  TIP3      6434            0.0000000000
     36653      6571  TIP3      OH2            26.5164806787       15.0436927274      -43.2075210403  TIP3      6435            0.0000000000
     36654      6571  TIP3      H1             26.2791106533       14.7222785793      -42.3148012554  TIP3      6435            0.0000000000
     36655      6571  TIP3      H2             27.3656922278       15.4781468941      -43.0004332561  TIP3      6435            0.0000000000
     36656      6572  TIP3      OH2            30.1603595480       20.6374080023      -42.8592016869  TIP3      6436            0.0000000000
     36657      6572  TIP3      H1             30.3395396959       21.3652035502      -43.4945753988  TIP3      6436            0.0000000000
     36658      6572  TIP3      H2             30.3398576182       21.0793776930      -42.0147571955  TIP3      6436            0.0000000000
     36659      6573  TIP3      OH2            28.7352618165        7.7734216959      -43.4237835825  TIP3      6437            0.0000000000
     36660      6573  TIP3      H1             28.8764402232        8.7389278649      -43.5934006937  TIP3      6437            0.0000000000
     36661      6573  TIP3      H2             29.4348214806        7.6027754042      -42.7577947011  TIP3      6437            0.0000000000
     36662      6574  TIP3      OH2            27.5688903349       17.9491241342      -43.9398404472  TIP3      6438            0.0000000000
     36663      6574  TIP3      H1             28.4516227613       17.7879572023      -43.5644539247  TIP3      6438            0.0000000000
     36664      6574  TIP3      H2             27.7861122599       18.2525737040      -44.8321113181  TIP3      6438            0.0000000000
     36665      6575  TIP3      OH2            26.3749000810       10.5416236840      -45.0923095626  TIP3      6439            0.0000000000
     36666      6575  TIP3      H1             26.0528511995       11.4572365079      -44.9204668896  TIP3      6439            0.0000000000
     36667      6575  TIP3      H2             25.5947619069       10.0248586154      -44.8134710365  TIP3      6439            0.0000000000
     36668      6576  TIP3      OH2            30.2557255906       13.6632728899      -43.6981411948  TIP3      6440            0.0000000000
     36669      6576  TIP3      H1             30.2984279624       13.2739252970      -42.8064378449  TIP3      6440            0.0000000000
     36670      6576  TIP3      H2             30.9413401926       13.1539793685      -44.1722691097  TIP3      6440            0.0000000000
     36671      6577  TIP3      OH2            32.0859333105       12.3642157998       45.7328964120  TIP3      6441            0.0000000000
     36672      6577  TIP3      H1             31.8048301243       12.0728045669       44.8503185452  TIP3      6441            0.0000000000
     36673      6577  TIP3      H2             32.9679128545       12.7368604149       45.5653514435  TIP3      6441            0.0000000000
     36674      6578  TIP3      OH2            31.1618433759       22.5844962545      -44.4339515030  TIP3      6442            0.0000000000
     36675      6578  TIP3      H1             32.0842774575       22.4140859346      -44.2123431020  TIP3      6442            0.0000000000
     36676      6578  TIP3      H2             31.2324346938       22.7262663297      -45.4068820520  TIP3      6442            0.0000000000
     36677      6579  TIP3      OH2            24.9384767916       17.4869047581      -44.0483622981  TIP3      6443            0.0000000000
     36678      6579  TIP3      H1             25.9248238482       17.5078184125      -43.9774955640  TIP3      6443            0.0000000000
     36679      6579  TIP3      H2             24.8579194361       17.3940550720      -45.0195014254  TIP3      6443            0.0000000000
     36680      6580  TIP3      OH2            25.1536227189        4.9590696298      -43.2617745772  TIP3      6444            0.0000000000
     36681      6580  TIP3      H1             25.8087396798        5.6529962873      -43.5249418343  TIP3      6444            0.0000000000
     36682      6580  TIP3      H2             25.6382500075        4.5375924315      -42.5145926457  TIP3      6444            0.0000000000
     36683      6581  TIP3      OH2            26.7103841868        6.5339293909      -44.6249693504  TIP3      6445            0.0000000000
     36684      6581  TIP3      H1             26.9103516710        6.5963711635      -45.5849695272  TIP3      6445            0.0000000000
     36685      6581  TIP3      H2             27.4926286117        6.9439503725      -44.1877436839  TIP3      6445            0.0000000000
     36686      6582  TIP3      OH2            27.1885123724       22.5348852680      -45.2004845429  TIP3      6446            0.0000000000
     36687      6582  TIP3      H1             26.4365308185       22.0101992184      -44.8907539415  TIP3      6446            0.0000000000
     36688      6582  TIP3      H2             27.8754291817       22.2823072847      -44.5748121176  TIP3      6446            0.0000000000
     36689      6583  TIP3      OH2           -22.1327865560       30.5941704517      -44.5221158056  TIP3      6447            0.0000000000
     36690      6583  TIP3      H1            -21.3000390220       30.9230944519      -44.1236113524  TIP3      6447            0.0000000000
     36691      6583  TIP3      H2            -22.0327843209       30.8551134118      -45.4635796853  TIP3      6447            0.0000000000
     36692      6584  TIP3      OH2           -19.6503097672       31.8470240638      -43.4868940639  TIP3      6448            0.0000000000
     36693      6584  TIP3      H1            -19.9569244018       32.6589724740      -43.0668505568  TIP3      6448            0.0000000000
     36694      6584  TIP3      H2            -18.9498480260       32.1476885771      -44.0827048781  TIP3      6448            0.0000000000
     36695      6585  TIP3      OH2           -16.3057151544       23.7314255777      -42.4239634382  TIP3      6449            0.0000000000
     36696      6585  TIP3      H1            -17.1816386923       23.6515028146      -42.8216229930  TIP3      6449            0.0000000000
     36697      6585  TIP3      H2            -16.0555902815       24.6524500780      -42.6346178334  TIP3      6449            0.0000000000
     36698      6586  TIP3      OH2           -23.1308603017       26.0956271452      -44.2773290235  TIP3      6450            0.0000000000
     36699      6586  TIP3      H1            -23.8589612985       26.5472217120      -43.8189054835  TIP3      6450            0.0000000000
     36700      6586  TIP3      H2            -23.1672216235       25.1834461031      -43.9554603353  TIP3      6450            0.0000000000
     36701      6587  TIP3      OH2           -32.2007995251       27.3752668808      -43.3694438610  TIP3      6451            0.0000000000
     36702      6587  TIP3      H1            -31.4758257729       27.2202127582      -44.0060539956  TIP3      6451            0.0000000000
     36703      6587  TIP3      H2            -32.8549928427       27.7629703318      -43.9603196135  TIP3      6451            0.0000000000
     36704      6588  TIP3      OH2           -27.5949526794       30.0766560672      -43.8572762700  TIP3      6452            0.0000000000
     36705      6588  TIP3      H1            -27.9909108282       29.9455886176      -44.7364820146  TIP3      6452            0.0000000000
     36706      6588  TIP3      H2            -26.6536982171       30.0722520698      -44.0981327661  TIP3      6452            0.0000000000
     36707      6589  TIP3      OH2           -20.8091995877       27.4877623959      -43.9494953059  TIP3      6453            0.0000000000
     36708      6589  TIP3      H1            -21.5944944171       26.9656248388      -44.1979855354  TIP3      6453            0.0000000000
     36709      6589  TIP3      H2            -21.2074872448       28.3630378322      -43.8318531860  TIP3      6453            0.0000000000
     36710      6590  TIP3      OH2           -30.7454915611       30.9495571654      -44.1462826628  TIP3      6454            0.0000000000
     36711      6590  TIP3      H1            -30.0923071563       31.1362153243      -43.4636312439  TIP3      6454            0.0000000000
     36712      6590  TIP3      H2            -31.1724709200       31.8176393700      -44.2600351568  TIP3      6454            0.0000000000
     36713      6591  TIP3      OH2           -27.8994621978       26.1579267839      -43.4971690903  TIP3      6455            0.0000000000
     36714      6591  TIP3      H1            -28.2396500720       26.9720553196      -43.0874644391  TIP3      6455            0.0000000000
     36715      6591  TIP3      H2            -27.0480162637       26.1675125892      -43.0193423943  TIP3      6455            0.0000000000
     36716      6592  TIP3      OH2           -31.0439310045       28.7715783191      -45.5860143847  TIP3      6456            0.0000000000
     36717      6592  TIP3      H1            -30.7771734728       29.2163904197      -44.7556642345  TIP3      6456            0.0000000000
     36718      6592  TIP3      H2            -31.6407761660       29.4670923781      -45.9093179723  TIP3      6456            0.0000000000
     36719      6593  TIP3      OH2           -26.5968634234       33.0299299812      -44.2389453340  TIP3      6457            0.0000000000
     36720      6593  TIP3      H1            -27.0692867769       32.5548057207      -43.5498257114  TIP3      6457            0.0000000000
     36721      6593  TIP3      H2            -25.7852797338       32.4808929697      -44.2955838870  TIP3      6457            0.0000000000
     36722      6594  TIP3      OH2           -24.7590692811       31.1700510564      -44.4842867883  TIP3      6458            0.0000000000
     36723      6594  TIP3      H1            -24.7544109869       30.8772846724      -45.4257947074  TIP3      6458            0.0000000000
     36724      6594  TIP3      H2            -23.8001531195       31.0172762643      -44.3244937361  TIP3      6458            0.0000000000
     36725      6595  TIP3      OH2           -14.5453910116       31.4232946253      -44.0135654307  TIP3      6459            0.0000000000
     36726      6595  TIP3      H1            -15.3025155993       30.8665293680      -44.2836791960  TIP3      6459            0.0000000000
     36727      6595  TIP3      H2            -14.9552832831       32.0413364644      -43.3753588189  TIP3      6459            0.0000000000
     36728      6596  TIP3      OH2           -16.2663320413       29.4868659716       45.9618261151  TIP3      6460            0.0000000000
     36729      6596  TIP3      H1            -16.1712058221       29.7545549329       45.0154512594  TIP3      6460            0.0000000000
     36730      6596  TIP3      H2            -16.2616412045       28.5267201363       45.8824039953  TIP3      6460            0.0000000000
     36731      6597  TIP3      OH2           -15.1487326656       25.6173844381      -44.6250546701  TIP3      6461            0.0000000000
     36732      6597  TIP3      H1            -15.0118851456       25.9131036323      -45.5486312983  TIP3      6461            0.0000000000
     36733      6597  TIP3      H2            -14.5219758200       26.1958851494      -44.1442335688  TIP3      6461            0.0000000000
     36734      6598  TIP3      OH2           -31.0346062307       23.5345190417      -43.3226322743  TIP3      6462            0.0000000000
     36735      6598  TIP3      H1            -30.7403511099       24.3420604677      -43.8028251589  TIP3      6462            0.0000000000
     36736      6598  TIP3      H2            -31.4401926198       23.9452156415      -42.5377537509  TIP3      6462            0.0000000000
     36737      6599  TIP3      OH2           -30.2050106424       25.7262112906      -44.7447615952  TIP3      6463            0.0000000000
     36738      6599  TIP3      H1            -29.7724076823       25.5466371848      -45.6142320058  TIP3      6463            0.0000000000
     36739      6599  TIP3      H2            -29.4016775982       25.9773423662      -44.2430907536  TIP3      6463            0.0000000000
     36740      6600  TIP3      OH2            -3.4316116973       30.7292016797      -44.8071724680  TIP3      6464            0.0000000000
     36741      6600  TIP3      H1             -2.5846355612       31.1183994195      -44.4713900883  TIP3      6464            0.0000000000
     36742      6600  TIP3      H2             -3.2062428161       29.8025796586      -44.9680904835  TIP3      6464            0.0000000000
     36743      6601  TIP3      OH2            -1.2449551727       31.9836619196      -43.9056193410  TIP3      6465            0.0000000000
     36744      6601  TIP3      H1             -1.3364765942       32.3171038020      -43.0013325701  TIP3      6465            0.0000000000
     36745      6601  TIP3      H2             -0.4720019241       32.4366898837      -44.2642641845  TIP3      6465            0.0000000000
     36746      6602  TIP3      OH2             2.5409001671       23.6219768544      -42.3657771374  TIP3      6466            0.0000000000
     36747      6602  TIP3      H1              1.6697845166       23.5963401988      -42.7628863618  TIP3      6466            0.0000000000
     36748      6602  TIP3      H2              3.0298376231       24.1882662959      -42.9929160048  TIP3      6466            0.0000000000
     36749      6603  TIP3      OH2            -4.3687564565       26.2063176516      -44.2314110323  TIP3      6467            0.0000000000
     36750      6603  TIP3      H1             -5.0167032576       26.4317103881      -43.5459583698  TIP3      6467            0.0000000000
     36751      6603  TIP3      H2             -4.2028586909       25.2583844542      -44.1153888541  TIP3      6467            0.0000000000
     36752      6604  TIP3      OH2           -13.2412501123       27.2484277462      -43.3596961255  TIP3      6468            0.0000000000
     36753      6604  TIP3      H1            -12.5186783390       27.1924198697      -44.0192719944  TIP3      6468            0.0000000000
     36754      6604  TIP3      H2            -13.4091475682       28.2031660388      -43.3908947929  TIP3      6468            0.0000000000
     36755      6605  TIP3      OH2            -8.6915572541       30.0491124294      -44.0313416032  TIP3      6469            0.0000000000
     36756      6605  TIP3      H1             -9.3768768614       30.4412011007      -44.5966162054  TIP3      6469            0.0000000000
     36757      6605  TIP3      H2             -7.8807941783       30.1680689544      -44.5594297963  TIP3      6469            0.0000000000
     36758      6606  TIP3      OH2            -1.7246082285       27.5057409826      -44.0161322484  TIP3      6470            0.0000000000
     36759      6606  TIP3      H1             -2.6157443468       27.2215400646      -44.2903111032  TIP3      6470            0.0000000000
     36760      6606  TIP3      H2             -1.8803341730       28.3680997186      -43.6150463755  TIP3      6470            0.0000000000
     36761      6607  TIP3      OH2           -11.6450449237       31.2904008645      -44.1166009884  TIP3      6471            0.0000000000
     36762      6607  TIP3      H1            -11.2365108841       32.1678635465      -44.2251992320  TIP3      6471            0.0000000000
     36763      6607  TIP3      H2            -12.5718447426       31.5634537483      -43.9687269286  TIP3      6471            0.0000000000
     36764      6608  TIP3      OH2            -8.8451856874       26.0580264700      -43.2303285639  TIP3      6472            0.0000000000
     36765      6608  TIP3      H1             -9.0732226950       26.9893205914      -43.0311661489  TIP3      6472            0.0000000000
     36766      6608  TIP3      H2             -7.9127279005       26.0969321646      -42.9646212418  TIP3      6472            0.0000000000
     36767      6609  TIP3      OH2           -12.1999457621       28.9742025833      -45.2526868748  TIP3      6473            0.0000000000
     36768      6609  TIP3      H1            -11.8909079405       29.7430868469      -44.7077131818  TIP3      6473            0.0000000000
     36769      6609  TIP3      H2            -12.9883077313       29.3844800522      -45.6463212318  TIP3      6473            0.0000000000
     36770      6610  TIP3      OH2            -7.4738574742       33.3037826734      -44.0689665548  TIP3      6474            0.0000000000
     36771      6610  TIP3      H1             -8.1016959523       32.8236410634      -43.5155749915  TIP3      6474            0.0000000000
     36772      6610  TIP3      H2             -6.7899844066       32.6197522250      -44.2198511111  TIP3      6474            0.0000000000
     36773      6611  TIP3      OH2            -6.0246110470       31.1058652212      -44.9023128661  TIP3      6475            0.0000000000
     36774      6611  TIP3      H1             -6.1022061657       30.9080419798      -45.8483720190  TIP3      6475            0.0000000000
     36775      6611  TIP3      H2             -5.0406054740       31.0231418106      -44.8138395891  TIP3      6475            0.0000000000
     36776      6612  TIP3      OH2             4.0777656165       31.3921547611      -43.9737632738  TIP3      6476            0.0000000000
     36777      6612  TIP3      H1              3.1605991857       31.6196168650      -44.1958693530  TIP3      6476            0.0000000000
     36778      6612  TIP3      H2              4.2560126409       31.9994882471      -43.2399884366  TIP3      6476            0.0000000000
     36779      6613  TIP3      OH2             2.4137712656       29.3248098165       45.8985169732  TIP3      6477            0.0000000000
     36780      6613  TIP3      H1              2.6044055992       29.5811168888       44.9682529905  TIP3      6477            0.0000000000
     36781      6613  TIP3      H2              2.6167683630       28.3851422521       45.9005704593  TIP3      6477            0.0000000000
     36782      6614  TIP3      OH2             3.8983298428       25.4191014865      -44.5470850449  TIP3      6478            0.0000000000
     36783      6614  TIP3      H1              4.3052873013       25.6729939190      -45.4012470470  TIP3      6478            0.0000000000
     36784      6614  TIP3      H2              4.4412657424       25.9630523217      -43.9404150193  TIP3      6478            0.0000000000
     36785      6615  TIP3      OH2           -12.2649575693       23.4886033875      -43.2086406510  TIP3      6479            0.0000000000
     36786      6615  TIP3      H1            -11.6066925318       24.1804401446      -43.4805187988  TIP3      6479            0.0000000000
     36787      6615  TIP3      H2            -12.9926348522       24.0532125381      -42.9065692342  TIP3      6479            0.0000000000
     36788      6616  TIP3      OH2           -11.0191629433       25.3485430276      -44.6628715408  TIP3      6480            0.0000000000
     36789      6616  TIP3      H1            -10.8342381278       25.4893226526      -45.6207102420  TIP3      6480            0.0000000000
     36790      6616  TIP3      H2            -10.1895503256       25.6371672007      -44.2263761631  TIP3      6480            0.0000000000
     36791      6617  TIP3      OH2            15.3669073651       30.4520353466      -44.4965476836  TIP3      6481            0.0000000000
     36792      6617  TIP3      H1             16.0975260968       31.0700418327      -44.2577573925  TIP3      6481            0.0000000000
     36793      6617  TIP3      H2             15.8127730536       29.5981989951      -44.4322477150  TIP3      6481            0.0000000000
     36794      6618  TIP3      OH2            17.3626588104       32.2306686032      -43.8694509330  TIP3      6482            0.0000000000
     36795      6618  TIP3      H1             17.5679627632       32.5371264311      -42.9725994537  TIP3      6482            0.0000000000
     36796      6618  TIP3      H2             18.1680937873       32.4633017732      -44.3450797543  TIP3      6482            0.0000000000
     36797      6619  TIP3      OH2            21.5359400594       24.0290695538      -42.7799246276  TIP3      6483            0.0000000000
     36798      6619  TIP3      H1             20.6603659571       23.6708775861      -42.9657695079  TIP3      6483            0.0000000000
     36799      6619  TIP3      H2             21.5981885975       24.7224063789      -43.4746155368  TIP3      6483            0.0000000000
     36800      6620  TIP3      OH2            14.2044191338       25.9318607927      -44.4163285259  TIP3      6484            0.0000000000
     36801      6620  TIP3      H1             13.5412765063       26.3443241646      -43.8375769916  TIP3      6484            0.0000000000
     36802      6620  TIP3      H2             14.5135356390       25.1605479790      -43.9161447018  TIP3      6484            0.0000000000
     36803      6621  TIP3      OH2             5.5854110034       27.1729425089      -43.2814539145  TIP3      6485            0.0000000000
     36804      6621  TIP3      H1              6.4269110759       26.8586816029      -43.7032371507  TIP3      6485            0.0000000000
     36805      6621  TIP3      H2              5.4021916835       27.8995560945      -43.8999980944  TIP3      6485            0.0000000000
     36806      6622  TIP3      OH2             9.5329800731       29.9490076315      -44.1326553323  TIP3      6486            0.0000000000
     36807      6622  TIP3      H1              8.7947324637       30.5591464797      -44.3389472694  TIP3      6486            0.0000000000
     36808      6622  TIP3      H2              9.7595697630       29.5929566143      -45.0193247978  TIP3      6486            0.0000000000
     36809      6623  TIP3      OH2            16.7232416007       27.4042067501      -43.9495688960  TIP3      6487            0.0000000000
     36810      6623  TIP3      H1             15.8905347262       27.0595374297      -44.2960839472  TIP3      6487            0.0000000000
     36811      6623  TIP3      H2             16.4863474349       27.6619572548      -43.0476429412  TIP3      6487            0.0000000000
     36812      6624  TIP3      OH2             7.3900488220       31.5381702008      -44.4750111112  TIP3      6488            0.0000000000
     36813      6624  TIP3      H1              7.8446850387       32.4112171089      -44.3800455945  TIP3      6488            0.0000000000
     36814      6624  TIP3      H2              6.5698350960       31.7103803847      -43.9845068284  TIP3      6488            0.0000000000
     36815      6625  TIP3      OH2             9.7392020255       26.1117432911      -43.3841334687  TIP3      6489            0.0000000000
     36816      6625  TIP3      H1              9.1014271925       26.7627187368      -43.0444545659  TIP3      6489            0.0000000000
     36817      6625  TIP3      H2             10.5065579194       26.3868489809      -42.8385017386  TIP3      6489            0.0000000000
     36818      6626  TIP3      OH2             6.5621437889       29.1168528648      -45.4233848380  TIP3      6490            0.0000000000
     36819      6626  TIP3      H1              7.0674531107       29.8725914668      -45.0549116523  TIP3      6490            0.0000000000
     36820      6626  TIP3      H2              5.6591458184       29.4400302266      -45.3219077277  TIP3      6490            0.0000000000
     36821      6627  TIP3      OH2            11.2969897283       33.2090783625      -43.8834037407  TIP3      6491            0.0000000000
     36822      6627  TIP3      H1             11.0479106897       32.9490453900      -42.9910406837  TIP3      6491            0.0000000000
     36823      6627  TIP3      H2             11.7710694257       32.3875974297      -44.1474313032  TIP3      6491            0.0000000000
     36824      6628  TIP3      OH2            12.6672827069       30.9676197372      -44.4954220855  TIP3      6492            0.0000000000
     36825      6628  TIP3      H1             12.5176657838       30.6209915637      -45.3859155528  TIP3      6492            0.0000000000
     36826      6628  TIP3      H2             13.6490144833       30.8757298934      -44.4420090001  TIP3      6492            0.0000000000
     36827      6629  TIP3      OH2            23.0446804542       31.3834000689      -44.0616885634  TIP3      6493            0.0000000000
     36828      6629  TIP3      H1             22.2221932586       31.0004089126      -44.4259370645  TIP3      6493            0.0000000000
     36829      6629  TIP3      H2             22.6869369621       32.0411983694      -43.4251140580  TIP3      6493            0.0000000000
     36830      6630  TIP3      OH2            21.1023794299       29.4923990806       45.8602087144  TIP3      6494            0.0000000000
     36831      6630  TIP3      H1             20.9748345294       29.6417762758       44.8976356526  TIP3      6494            0.0000000000
     36832      6630  TIP3      H2             21.6049293762       28.6644423666       45.8785422300  TIP3      6494            0.0000000000
     36833      6631  TIP3      OH2            22.2926833968       26.0111813739      -44.6260593328  TIP3      6495            0.0000000000
     36834      6631  TIP3      H1             22.5630553463       26.3493311353      -45.5035684350  TIP3      6495            0.0000000000
     36835      6631  TIP3      H2             23.0688938689       26.2851175342      -44.0946066709  TIP3      6495            0.0000000000
     36836      6632  TIP3      OH2             6.6414313839       23.8802613304      -43.5328426855  TIP3      6496            0.0000000000
     36837      6632  TIP3      H1              7.5426803055       24.1547429383      -43.3045276759  TIP3      6496            0.0000000000
     36838      6632  TIP3      H2              6.1680446886       24.1148540609      -42.7251946406  TIP3      6496            0.0000000000
     36839      6633  TIP3      OH2             7.5702556341       26.2784307477      -44.8188643892  TIP3      6497            0.0000000000
     36840      6633  TIP3      H1              7.6246445757       25.7583919682      -45.6461826394  TIP3      6497            0.0000000000
     36841      6633  TIP3      H2              8.4864077841       26.1824576188      -44.4897713835  TIP3      6497            0.0000000000
     36842      6634  TIP3      OH2            24.4715792707       27.1388908857      -43.4131506137  TIP3      6498            0.0000000000
     36843      6634  TIP3      H1             24.8404101832       26.5818628033      -42.7197324011  TIP3      6498            0.0000000000
     36844      6634  TIP3      H2             24.8946944717       27.9792114116      -43.1510422238  TIP3      6498            0.0000000000
     36845      6635  TIP3      OH2            28.9579181273       30.3636061087      -44.1147627782  TIP3      6499            0.0000000000
     36846      6635  TIP3      H1             28.0601810577       30.6287159677      -44.4075335748  TIP3      6499            0.0000000000
     36847      6635  TIP3      H2             29.2838060362       29.9058533193      -44.9087328697  TIP3      6499            0.0000000000
     36848      6636  TIP3      OH2            26.3908981800       31.4685598622      -44.5276414446  TIP3      6500            0.0000000000
     36849      6636  TIP3      H1             26.7355606048       32.2610396505      -44.0879283088  TIP3      6500            0.0000000000
     36850      6636  TIP3      H2             25.4585381931       31.5080707538      -44.2558060813  TIP3      6500            0.0000000000
     36851      6637  POT       POT            -4.6112536960      -33.1351277590       38.7958791635  IONS      1               1.0000000000
     36852      6638  POT       POT            -4.7427918972      -24.4898984364       38.2158542647  IONS      2               1.0000000000
     36853      6639  POT       POT           -15.4617821232        8.4594799941      -33.0807747614  IONS      3               1.0000000000
     36854      6640  POT       POT           -21.8418455070       -4.7164844133       34.4416975992  IONS      4               1.0000000000
     36855      6641  POT       POT            33.0353464884      -12.2742570963       26.5739287406  IONS      5               1.0000000000
     36856      6642  POT       POT            14.9875328744      -20.0669080988      -29.0335866771  IONS      6               1.0000000000
     36857      6643  POT       POT             0.9645096634      -32.2710260180       27.5221375378  IONS      7               1.0000000000
     36858      6644  POT       POT            23.4939451044      -28.9465131358       24.7847838133  IONS      8               1.0000000000
     36859      6645  POT       POT             2.8012688479       18.6111396583      -31.7262529952  IONS      9               1.0000000000
     36860      6646  POT       POT            -5.0087990866      -25.4204239013      -36.7328787855  IONS      10              1.0000000000
     36861      6647  POT       POT            -4.5112472838      -22.5230994218      -29.1540694602  IONS      11              1.0000000000
     36862      6648  POT       POT            17.1565260288       15.1471134290      -33.1721258012  IONS      12              1.0000000000
     36863      6649  POT       POT             0.2482951579      -11.1864225722       23.3524517365  IONS      13              1.0000000000
     36864      6650  POT       POT           -18.3136025391       26.3031351550       40.5639922109  IONS      14              1.0000000000
     36865      6651  POT       POT           -30.1556578249       -2.1348807533       39.6002058754  IONS      15              1.0000000000
     36866      6652  POT       POT           -29.8959918213       -3.2063966446      -34.6884912012  IONS      16              1.0000000000
     36867      6653  POT       POT            13.9976005620       -4.0779849239       39.3728913278  IONS      17              1.0000000000
     36868      6654  POT       POT             9.6538846296       -6.7480421223      -35.9031107095  IONS      18              1.0000000000
     36869      6655  POT       POT            31.5996103779      -25.6623086791      -31.2047688916  IONS      19              1.0000000000
     36870      6656  POT       POT           -26.7107246691      -15.7597461267       35.2981845979  IONS      20              1.0000000000
     36871      6657  POT       POT           -17.8499406983       23.0068871711      -37.7255505376  IONS      21              1.0000000000
     36872      6658  POT       POT           -32.6287379277       18.9804088657       21.6901145454  IONS      22              1.0000000000
     36873      6659  POT       POT            10.1870158383      -13.6492712967       25.2234263561  IONS      23              1.0000000000
     36874      6660  POT       POT            -4.2279480861        8.2117694241      -29.4643518316  IONS      24              1.0000000000
     36875      6661  POT       POT           -28.2184572582        4.7988441469      -39.9278284644  IONS      25              1.0000000000
     36876      6662  POT       POT            -5.2971388869       -0.0869414094       27.9550001990  IONS      26              1.0000000000
     36877      6663  POT       POT            22.2225744363        8.8419267609       28.5677043411  IONS      27              1.0000000000
     36878      6664  POT       POT            23.7757845626       -6.5809869950      -22.9733076309  IONS      28              1.0000000000
     36879      6665  POT       POT            32.2876511346       -7.9818412885      -21.8463104360  IONS      29              1.0000000000
     36880      6666  POT       POT           -32.0182732331       -1.9733994577       26.2418813426  IONS      30              1.0000000000
     36881      6667  POT       POT            19.2774691481       30.2630258061       41.2652464873  IONS      31              1.0000000000
     36882      6668  POT       POT           -26.6101978302        0.0019564484      -41.5930087542  IONS      32              1.0000000000
     36883      6669  POT       POT             2.0176406857       21.0209446360      -40.1016306818  IONS      33              1.0000000000
     36884      6670  POT       POT            14.2658983318       14.4161766190       27.2689030696  IONS      34              1.0000000000
     36885      6671  POT       POT            -6.6547384921       25.6544262807      -40.2895513227  IONS      35              1.0000000000
     36886      6672  POT       POT            28.8500136836        9.4238615979      -23.7401844596  IONS      36              1.0000000000
     36887      6673  POT       POT            19.9973301700       22.2333273480      -22.4515217659  IONS      37              1.0000000000
     36888      6674  POT       POT           -18.7963246470      -30.9606126336      -35.9719374901  IONS      38              1.0000000000
     36889      6675  POT       POT            20.2897759314       32.8825525015      -18.3827343018  IONS      39              1.0000000000
     36890      6676  CLA       CLA            30.7026186661      -31.0598060944       25.3906527551  IONS      40             -1.0000000000
     36891      6677  CLA       CLA           -17.5865514059        9.3320211300      -30.0863092824  IONS      41             -1.0000000000
     36892      6678  CLA       CLA            -1.8431307412        1.7904380324       37.5272291216  IONS      42             -1.0000000000
     36893      6679  CLA       CLA            17.4911926382       -0.2625469394       23.6702401180  IONS      43             -1.0000000000
     36894      6680  CLA       CLA             2.2057715171        5.7541034046       38.7753834561  IONS      44             -1.0000000000
     36895      6681  CLA       CLA            21.4431230854       16.8404652871       31.1119472576  IONS      45             -1.0000000000
     36896      6682  CLA       CLA            -6.0017739529      -26.7877572119      -25.9458466752  IONS      46             -1.0000000000
     36897      6683  CLA       CLA           -28.6170377375      -28.9725914271       39.6652622508  IONS      47             -1.0000000000
     36898      6684  CLA       CLA           -29.0933041862       31.7116768515      -34.7825620439  IONS      48             -1.0000000000
     36899      6685  CLA       CLA             3.1869134699       24.1162550854       30.2873147310  IONS      49             -1.0000000000
     36900      6686  CLA       CLA           -23.3291963474        2.8015388963       28.4826460242  IONS      50             -1.0000000000
     36901      6687  CLA       CLA            15.6680954882       16.0535172564       29.4288744559  IONS      51             -1.0000000000
     36902      6688  CLA       CLA             8.6087106393       -8.8680041327       32.2648652790  IONS      52             -1.0000000000
     36903      6689  CLA       CLA           -18.5569742016      -13.3569091594      -21.9612069720  IONS      53             -1.0000000000
